       102
S0: Total Energy = -4266.98918511
 C         -9.178722   -0.934744   -0.039347
 C         -8.500580   -2.174947   -0.116476
 C         -7.119442   -2.060407   -0.099749
 C         -6.704163   -0.720549   -0.008723
 C         -5.278939   -0.684832    0.000384
 C         -4.783306   -1.983059   -0.083226
 C         -3.377626   -2.039664   -0.079928
 C         -2.783316   -0.783820   -0.003765
 S         -8.004018    0.407159    0.056867
 S         -4.016297    0.493052    0.091271
 C         -5.918189   -3.002434   -0.156383
 H         -9.052291   -3.107371   -0.182477
 H         -2.792745   -2.945738   -0.144996
 C          9.178722    0.934745    0.039348
 C          8.500580    2.174948    0.116468
 C          7.119442    2.060408    0.099736
 C          6.704163    0.720550    0.008713
 C          5.278940    0.684833   -0.000399
 C          4.783306    1.983061    0.083205
 C          3.377626    2.039666    0.079903
 C          2.783316    0.783822    0.003743
 S          8.004019   -0.407158   -0.056867
 S          4.016298   -0.493051   -0.091285
 C          5.918189    3.002435    0.156362
 H          9.052291    3.107372    0.182468
 H          2.792745    2.945740    0.144967
 C         -1.371835   -0.413695   -0.007222
 C         -0.341580   -1.315370    0.372739
 C          0.983097   -0.889033    0.376389
 C          1.371835    0.413696    0.007199
 C          0.341580    1.315371   -0.372762
 C         -0.983096    0.889034   -0.376412
 H          1.751840   -1.576581    0.705084
 H         -1.751840    1.576583   -0.705106
 C        -10.588417   -0.887310   -0.047408
 C        -11.525160    0.133479    0.010463
 C        -11.221250    1.575401    0.107477
 O        -10.113860    2.106260    0.152321
 C        -12.518355    2.287645    0.142538
 C        -12.741932    3.654211    0.230006
 C        -14.064743    4.104405    0.247459
 C        -15.118454    3.185978    0.177711
 C        -14.887002    1.808241    0.089517
 C        -13.565236    1.350345    0.071611
 C        -12.977902   -0.015446   -0.012850
 C        -13.724760   -1.182903   -0.097311
 C        -15.152280   -1.210240   -0.111997
 N        -16.314825   -1.294728   -0.127954
 C        -13.169057   -2.495483   -0.180036
 N        -12.766184   -3.587580   -0.249636
 H        -10.993223   -1.891108   -0.115341
 H        -11.902465    4.340834    0.282576
 H        -15.731263    1.134627    0.037674
 C         10.588417    0.887310    0.047416
 C         11.525160   -0.133479   -0.010447
 C         11.221249   -1.575402   -0.107454
 O         10.113859   -2.106260   -0.152301
 C         12.518354   -2.287647   -0.142509
 C         12.741930   -3.654213   -0.229971
 C         14.064742   -4.104408   -0.247418
 C         15.118453   -3.185982   -0.177670
 C         14.887002   -1.808244   -0.089482
 C         13.565236   -1.350347   -0.071582
 C         12.977901    0.015444    0.012872
 C         13.724760    1.182902    0.097329
 C         15.152280    1.210238    0.112017
 N         16.314825    1.294725    0.127975
 C         13.169058    2.495483    0.180046
 N         12.766187    3.587581    0.249631
 H         10.993223    1.891108    0.115346
 H         11.902463   -4.340836   -0.282541
 H         15.731262   -1.134630   -0.037639
 C         -5.890494   -3.965132    1.052402
 H         -6.749545   -4.644003    1.019034
 H         -4.977842   -4.570938    1.035738
 C         -5.880518   -3.800740   -1.479090
 H         -6.740631   -4.476176   -1.541831
 H         -4.969206   -4.406397   -1.532715
 C          5.890498    3.965129   -1.052426
 H          6.749549    4.644001   -1.019057
 H          4.977846    4.570935   -1.035768
 C          5.880513    3.800747    1.479066
 H          6.740626    4.476182    1.541808
 H          4.969201    4.406403    1.532686
 H         -5.902249   -3.132946   -2.345788
 H         -5.921696   -3.414926    1.997823
 H          5.921704    3.414921   -1.997846
 H          5.902241    3.132955    2.345767
 H        -16.143204    3.545484    0.191908
 H        -14.278458    5.167040    0.315020
 H         14.278456   -5.167044   -0.314974
 H         16.143203   -3.545487   -0.191862
 O         -0.719603   -2.570231    0.746351
 O          0.719603    2.570232   -0.746374
 C          0.275127   -3.488863    1.190050
 H          1.004405   -3.701977    0.399290
 H          0.795964   -3.113672    2.079022
 H         -0.262140   -4.403471    1.444062
 C         -0.275126    3.488863   -1.190078
 H         -0.795966    3.113665   -2.079047
 H         -1.004401    3.701985   -0.399319
 H          0.262143    4.403467   -1.444100
       102
T1: Total Energy = -4266.94860236
 C         -9.158693    0.935276    0.006597
 C         -8.476125    2.184585   -0.046781
 C         -7.103196    2.067506   -0.089970
 C         -6.678142    0.716052   -0.071586
 C         -5.275896    0.682081   -0.114517
 C         -4.767366    2.002077   -0.159414
 C         -3.386177    2.059779   -0.194566
 C         -2.764476    0.784925   -0.179650
 S         -7.990285   -0.416298   -0.000386
 S         -4.016556   -0.503414   -0.120760
 C         -5.908745    3.018182   -0.152812
 H         -9.029222    3.118049   -0.050365
 H         -2.805325    2.968417   -0.230466
 C          9.158705   -0.935225    0.006612
 C          8.476178   -2.184576   -0.046298
 C          7.103251   -2.067556   -0.089694
 C          6.678154   -0.716106   -0.071937
 C          5.275906   -0.682201   -0.114856
 C          4.767415   -2.002235   -0.159115
 C          3.386224   -2.059999   -0.194092
 C          2.764489   -0.785158   -0.179671
 S          7.990259    0.416312   -0.001060
 S          4.016527    0.503248   -0.121506
 C          5.908829   -3.018299   -0.152082
 H          9.029306   -3.118023   -0.049446
 H          2.805390   -2.968670   -0.229471
 C         -1.388324    0.421546   -0.197324
 C         -0.306494    1.378102   -0.204177
 C          1.003479    0.949869   -0.202087
 C          1.388330   -0.421806   -0.197353
 C          0.306505   -1.378366   -0.203772
 C         -1.003469   -0.950132   -0.201618
 H          1.785432    1.697078   -0.205828
 H         -1.785413   -1.697351   -0.205002
 C        -10.564901    0.892646    0.057143
 C        -11.504900   -0.133931    0.112916
 C        -11.202123   -1.581597    0.127601
 O        -10.095234   -2.114712    0.100661
 C        -12.498182   -2.293783    0.180979
 C        -12.723250   -3.662003    0.209368
 C        -14.046754   -4.110517    0.258938
 C        -15.097101   -3.186954    0.278616
 C        -14.863355   -1.805960    0.250082
 C        -13.542260   -1.350556    0.200436
 C        -12.950776    0.016020    0.161415
 C        -13.697809    1.192443    0.174289
 C        -15.123254    1.222021    0.220594
 N        -16.285846    1.308043    0.257109
 C        -13.143847    2.506594    0.145327
 N        -12.745274    3.602954    0.123810
 H        -10.970795    1.897674    0.048678
 H        -11.885096   -4.352150    0.192904
 H        -15.706138   -1.128685    0.266812
 C         10.564907   -0.892540    0.057278
 C         11.504881    0.134078    0.112730
 C         11.202061    1.581734    0.127395
 O         10.095162    2.114816    0.100193
 C         12.498087    2.293952    0.181184
 C         12.723113    3.662173    0.209867
 C         14.046591    4.110711    0.259913
 C         15.096957    3.187171    0.279755
 C         14.863255    1.806176    0.250901
 C         13.542186    1.350752    0.200778
 C         12.950755   -0.015831    0.161323
 C         13.697839   -1.192222    0.173743
 C         15.123281   -1.221754    0.220189
 N         16.285873   -1.307721    0.256828
 C         13.143942   -2.506386    0.144021
 N         12.745431   -3.602754    0.121775
 H         10.970824   -1.897563    0.049325
 H         11.884948    4.352302    0.193273
 H         15.706047    1.128916    0.267787
 C         -5.924024    3.863083   -1.446720
 H         -6.793126    4.529721   -1.455116
 H         -5.021078    4.480189   -1.509156
 C         -5.844821    3.936954    1.087784
 H         -6.710559    4.607647    1.109703
 H         -4.938727    4.552097    1.059219
 C          5.844996   -3.936523    1.088923
 H          6.710753   -4.607184    1.111085
 H          4.938921   -4.551706    1.060676
 C          5.924076   -3.863791   -1.445610
 H          6.793187   -4.530419   -1.453736
 H          5.021135   -4.480939   -1.507726
 H         -5.836843    3.353726    2.013652
 H         -5.969232    3.226638   -2.335764
 H          5.837053   -3.352895    2.014538
 H          5.969236   -3.227755   -2.334949
 H        -16.122329   -3.543643    0.316922
 H        -14.262017   -5.174724    0.282098
 H         14.261820    5.174919    0.283323
 H         16.122164    3.543880    0.318451
 O         -0.653595    2.689803   -0.208817
 O          0.653609   -2.690068   -0.208077
 C          0.370198    3.684083   -0.205943
 H          0.993551    3.606608    0.692121
 H          0.997907    3.607568   -1.101067
 H         -0.151606    4.641467   -0.206825
 C         -0.370183   -3.684348   -0.205221
 H         -0.993459   -3.606964    0.692907
 H         -0.997971   -3.607744   -1.100280
 H          0.151620   -4.641731   -0.206227
       102
S1: Total Energy = -4266.93146402
 C         -9.165321    0.936071    0.001574
 C         -8.488532    2.180687    0.079058
 C         -7.110068    2.063696    0.132479
 C         -6.688264    0.718325    0.097689
 C         -5.276544    0.685765    0.150547
 C         -4.774954    1.998585    0.217644
 C         -3.387052    2.056178    0.261714
 C         -2.770507    0.786926    0.231264
 S         -7.994965   -0.413105   -0.000408
 S         -4.018194   -0.497166    0.145854
 C         -5.916759    3.013936    0.217622
 H         -9.041326    3.114311    0.091044
 H         -2.808139    2.965186    0.315109
 C          9.165306   -0.936055    0.001452
 C          8.488511   -2.180668    0.078959
 C          7.110047   -2.063670    0.132362
 C          6.688250   -0.718298    0.097556
 C          5.276531   -0.685729    0.150451
 C          4.774935   -1.998544    0.217604
 C          3.387034   -2.056125    0.261725
 C          2.770493   -0.786870    0.231271
 S          7.994955    0.413125   -0.000564
 S          4.018190    0.497210    0.145749
 C          5.916735   -3.013901    0.217577
 H          9.041302   -3.114293    0.090949
 H          2.808117   -2.965125    0.315210
 C         -1.386913    0.419960    0.251148
 C         -0.309005    1.375985    0.257728
 C          1.004796    0.947280    0.255873
 C          1.386899   -0.419898    0.251148
 C          0.308990   -1.375923    0.257762
 C         -1.004812   -0.947219    0.255891
 H          1.785759    1.695443    0.261005
 H         -1.785777   -1.695382    0.260977
 C        -10.575827    0.891148   -0.065250
 C        -11.510970   -0.132964   -0.145158
 C        -11.204842   -1.580777   -0.171225
 O        -10.096682   -2.110966   -0.136782
 C        -12.498255   -2.294181   -0.246303
 C        -12.720320   -3.662245   -0.290695
 C        -14.042482   -4.113263   -0.359792
 C        -15.094345   -3.191032   -0.382425
 C        -14.864374   -1.810071   -0.337867
 C        -13.544301   -1.351168   -0.268610
 C        -12.959294    0.013804   -0.210334
 C        -13.707622    1.191195   -0.223466
 C        -15.131855    1.219881   -0.286274
 N        -16.294537    1.304006   -0.335633
 C        -13.154972    2.504690   -0.179556
 N        -12.755882    3.601073   -0.146398
 H        -10.982197    1.896047   -0.047936
 H        -11.880910   -4.350848   -0.271496
 H        -15.708230   -1.134190   -0.357612
 C         10.575814   -0.891147   -0.065354
 C         11.510980    0.132948   -0.145216
 C         11.204891    1.580770   -0.171276
 O         10.096744    2.110988   -0.136849
 C         12.498325    2.294142   -0.246297
 C         12.720425    3.662201   -0.290642
 C         14.042601    4.113188   -0.359688
 C         15.094441    3.190930   -0.382317
 C         14.864433    1.809974   -0.337796
 C         13.544347    1.351103   -0.268589
 C         12.959302   -0.013855   -0.210341
 C         13.707597   -1.191266   -0.223426
 C         15.131831   -1.219998   -0.286203
 N         16.294511   -1.304167   -0.335530
 C         13.154906   -2.504743   -0.179471
 N         12.755775   -3.601109   -0.146269
 H         10.982170   -1.896053   -0.048047
 H         11.881032    4.350826   -0.271446
 H         15.708273    1.134073   -0.357533
 C         -5.844237    3.950147   -1.009550
 H         -6.710221    4.620603   -1.028320
 H         -4.938873    4.565559   -0.966094
 C         -5.941451    3.840682    1.523203
 H         -6.811130    4.506498    1.534950
 H         -5.039660    4.457849    1.600802
 C          5.941483   -3.840589    1.523187
 H          6.811155   -4.506414    1.534921
 H          5.039690   -4.457745    1.600865
 C          5.844147   -3.950167   -1.009555
 H          6.710144   -4.620605   -1.028358
 H          4.938800   -4.565596   -0.966000
 H         -5.992445    3.191633    2.402760
 H         -5.829425    3.379821   -1.943344
 H          5.992528   -3.191506    2.402718
 H          5.829253   -3.379877   -1.943368
 H        -16.118349   -3.549514   -0.435861
 H        -14.255365   -5.177592   -0.395801
 H         14.255512    5.177512   -0.395662
 H         16.118455    3.549387   -0.435716
 O         -0.654532    2.686434    0.261146
 O          0.654510   -2.686373    0.261203
 C          0.368382    3.682730    0.254720
 H          0.996254    3.609454    1.149803
 H          0.990529    3.603254   -0.643786
 H         -0.155428    4.638877    0.253258
 C         -0.368419   -3.682655    0.254951
 H         -0.996280   -3.609226    1.150029
 H         -0.990575   -3.603310   -0.643561
 H          0.155375   -4.638811    0.253624
