        83
S0: Total Energy = -4165.70792522
 C          3.201028   -1.641581    0.132291
 C          2.564553   -0.395688    0.126779
 C          1.169437   -0.485414    0.072153
 C          0.714358   -1.804049    0.033694
 C         -0.712731   -1.803657   -0.018956
 C         -1.168753   -0.484774   -0.012650
 C         -2.563868   -0.394243   -0.064393
 C         -3.199617   -1.639701   -0.112204
 S          1.998241   -2.952774    0.070397
 S         -1.995709   -2.951417   -0.093952
 C         -0.000020    0.497549    0.047615
 H          3.116966    0.536937    0.166684
 H         -3.116763    0.538941   -0.070927
 C          8.492147   -1.212682    0.151357
 C          9.193848   -0.024412    0.056779
 C          8.595109    1.321182   -0.070003
 O          7.403992    1.614652   -0.105238
 C          9.717474    2.282198   -0.150609
 C          9.642317    3.662973   -0.279911
 C         10.840036    4.359840   -0.336727
 C         12.064213    3.681571   -0.264981
 C         12.137529    2.300265   -0.135552
 C         10.935633    1.584681   -0.077017
 C         10.648241    0.132091    0.056669
 C         11.622293   -0.849096    0.160429
 C         13.023081   -0.571933    0.147153
 N         14.175320   -0.397072    0.141163
 C         11.355044   -2.245470    0.294072
 N         11.192481   -3.394473    0.404935
 H          9.093282   -2.111467    0.232689
 H          8.690906    4.180926   -0.335196
 H         13.116636    1.844140   -0.086661
 C         -8.490801   -1.212063   -0.163868
 C         -9.193708   -0.024564   -0.068206
 C         -8.596402    1.321067    0.064316
 O         -7.405640    1.615112    0.106377
 C         -9.719718    2.281357    0.140414
 C         -9.646030    3.662019    0.271688
 C        -10.844428    4.358173    0.322841
 C        -12.067818    3.679320    0.243728
 C        -12.139669    2.298110    0.112417
 C        -10.937084    1.583254    0.059535
 C        -10.648162    0.130969   -0.074293
 C        -11.621127   -0.850854   -0.182363
 C        -13.022145   -0.574657   -0.174626
 N        -14.174531   -0.400667   -0.173209
 C        -11.352430   -2.247058   -0.314856
 N        -11.188715   -3.395977   -0.424908
 H         -9.090975   -2.110811   -0.252342
 H         -8.695218    4.180442    0.332596
 H        -13.118244    1.841511    0.057674
 C         -0.047082    1.356505    1.331768
 H          0.836427    2.001184    1.391320
 H         -0.935062    1.997818    1.327716
 C          0.046267    1.403883   -1.203453
 H          0.933564    2.045600   -1.175495
 H         -0.837962    2.049350   -1.238781
 H          0.077983    0.810560   -2.122378
 H         -0.078262    0.729217    2.227880
 C         -4.612868   -1.883586   -0.155119
 C         -5.321551   -3.096662   -0.271609
 S         -5.696795   -0.504278   -0.051037
 C         -6.701766   -2.876987   -0.279047
 C         -7.114644   -1.541365   -0.170304
 H         -7.423858   -3.683187   -0.365468
 C          4.614665   -1.885750    0.161989
 C          5.324212   -3.099246    0.267030
 S          5.697307   -0.505816    0.055900
 C          6.704435   -2.879120    0.267777
 C          7.116157   -1.542763    0.163376
 H          7.427324   -3.685327    0.347205
 F         13.190006    4.405337   -0.325222
 F         10.855877    5.692845   -0.461269
 F        -10.861663    5.691040    0.448728
 F        -13.194331    4.402400    0.298584
 C          4.726757   -4.476780    0.376328
 H          4.051329   -4.563737    1.235482
 H          4.156226   -4.748312   -0.520044
 H          5.518293   -5.221046    0.500061
 C         -4.723580   -4.473793   -0.382836
 H         -4.053886   -4.561578   -1.246462
 H         -4.146834   -4.743498    0.510039
 H         -5.515297   -5.218830   -0.500586
        83
T1: Total Energy = -4165.67340899
 C          3.194597   -1.723275    0.077232
 C          2.537718   -0.453959    0.058927
 C          1.168990   -0.544602    0.029957
 C          0.693633   -1.890532    0.020281
 C         -0.693594   -1.890505   -0.019193
 C         -1.168954   -0.544563   -0.027236
 C         -2.537678   -0.453891   -0.056385
 C         -3.194545   -1.723189   -0.076412
 S          1.987064   -3.048647    0.059793
 S         -1.987010   -3.048578   -0.060339
 C          0.000018    0.438834    0.002119
 H          3.095139    0.475846    0.068431
 H         -3.095104    0.475923   -0.064792
 C          8.453530   -1.212920    0.084756
 C          9.139808   -0.003578    0.040876
 C          8.518466    1.338053   -0.006272
 O          7.321793    1.612562   -0.007291
 C          9.622909    2.321288   -0.053423
 C          9.525511    3.704891   -0.108565
 C         10.712504    4.423011   -0.146028
 C         11.945646    3.760355   -0.127638
 C         12.040929    2.374019   -0.072007
 C         10.851574    1.638301   -0.034351
 C         10.584326    0.175821    0.026322
 C         11.577538   -0.798430    0.061243
 C         12.972195   -0.498930    0.038578
 N         14.121990   -0.305488    0.021842
 C         11.335468   -2.202986    0.123811
 N         11.196240   -3.359874    0.175145
 H          9.069578   -2.104155    0.112156
 H          8.566033    4.210644   -0.122434
 H         13.027228    1.931086   -0.060827
 C         -8.453486   -1.212895   -0.085484
 C         -9.139802   -0.003597   -0.041036
 C         -8.518499    1.338025    0.006844
 O         -7.321827    1.612534    0.008776
 C         -9.622978    2.321248    0.053389
 C         -9.525625    3.704848    0.108663
 C        -10.712647    4.422962    0.145301
 C        -11.945773    3.760302    0.125999
 C        -12.041011    2.373966    0.070279
 C        -10.851626    1.638254    0.033449
 C        -10.584330    0.175775   -0.027042
 C        -11.577512   -0.798502   -0.062030
 C        -12.972183   -0.499017   -0.040028
 N        -14.121989   -0.305593   -0.023843
 C        -11.335400   -2.203085   -0.123844
 N        -11.196145   -3.359999   -0.174534
 H         -9.069508   -2.104117   -0.113901
 H         -8.566159    4.210604    0.123227
 H        -13.027300    1.931030    0.058367
 C         -0.031755    1.319526    1.271677
 H          0.852391    1.964643    1.307346
 H         -0.920453    1.959497    1.265696
 C          0.031787    1.321678   -1.265924
 H          0.920499    1.961622   -1.258890
 H         -0.852342    1.966883   -1.300458
 H          0.051429    0.712807   -2.174829
 H         -0.051448    0.709107    2.179543
 C         -4.580336   -1.941539   -0.096103
 C         -5.325994   -3.157525   -0.135972
 S         -5.659342   -0.531487   -0.062002
 C         -6.689083   -2.916275   -0.137532
 C         -7.086176   -1.557690   -0.097507
 H         -7.428163   -3.710631   -0.166476
 C          4.580396   -1.941630    0.096280
 C          5.326085   -3.157642    0.134711
 S          5.659368   -0.531530    0.063117
 C          6.689171   -2.916373    0.136007
 C          7.086230   -1.557745    0.097074
 H          7.428275   -3.710743    0.163943
 F         13.061363    4.501979   -0.165666
 F         10.705829    5.761835   -0.200450
 F        -10.706017    5.761785    0.199755
 F        -13.061521    4.501922    0.163209
 C          4.747531   -4.545142    0.172557
 H          4.109133   -4.697244    1.050899
 H          4.141904   -4.759080   -0.716184
 H          5.550115   -5.286355    0.212684
 C         -4.747414   -4.544986   -0.174860
 H         -4.108676   -4.696296   -1.053091
 H         -4.142130   -4.759719    0.713925
 H         -5.549978   -5.286169   -0.215970
        83
S1: Total Energy = -4165.65304836
 C          3.194064   -1.690035    0.101586
 C          2.549333   -0.430543    0.095096
 C          1.168413   -0.520019    0.057150
 C          0.702086   -1.854472    0.029390
 C         -0.701205   -1.854085   -0.015495
 C         -1.167911   -0.519449   -0.010484
 C         -2.548808   -0.429477   -0.047896
 C         -3.193147   -1.688659   -0.086306
 S          1.990407   -3.008795    0.061135
 S         -1.989056   -3.007692   -0.076538
 C          0.000123    0.463368    0.037237
 H          3.105670    0.499606    0.120892
 H         -3.105442    0.500863   -0.049529
 C          8.472180   -1.215398    0.107380
 C          9.161717   -0.015004    0.046031
 C          8.545140    1.330278   -0.026405
 O          7.349285    1.607278   -0.035563
 C          9.653183    2.306497   -0.087515
 C          9.561921    3.689010   -0.167669
 C         10.752215    4.401978   -0.214096
 C         11.982547    3.734016   -0.179422
 C         12.072784    2.348754   -0.098743
 C         10.879996    1.616706   -0.051944
 C         10.610337    0.160722    0.033077
 C         11.598967   -0.820481    0.088750
 C         12.994497   -0.529355    0.065828
 N         14.145729   -0.341111    0.049659
 C         11.348410   -2.221250    0.174488
 N         11.200466   -3.376676    0.245152
 H          9.082230   -2.110362    0.150341
 H          8.604536    4.198292   -0.193801
 H         13.057227    1.902100   -0.076225
 C         -8.471312   -1.214985   -0.117399
 C         -9.161594   -0.015194   -0.052944
 C         -8.545876    1.330084    0.026367
 O         -7.350178    1.607338    0.044171
 C         -9.654580    2.305910    0.081544
 C         -9.564239    3.688410    0.162954
 C        -10.755012    4.401013    0.202041
 C        -11.984906    3.732710    0.159222
 C        -12.074220    2.347452    0.077517
 C        -10.880944    1.615782    0.037957
 C        -10.610331    0.159915   -0.046078
 C        -11.598304   -0.821753   -0.104779
 C        -12.994039   -0.531189   -0.087686
 N        -14.145406   -0.343434   -0.076315
 C        -11.346844   -2.222585   -0.186926
 N        -11.198190   -3.378089   -0.254708
 H         -9.080806   -2.109853   -0.169140
 H         -8.607188    4.197959    0.195334
 H        -13.058367    1.900526    0.048427
 C         -0.037587    1.326166    1.319304
 H          0.846075    1.971037    1.368230
 H         -0.926187    1.966220    1.318128
 C          0.037509    1.364051   -1.218305
 H          0.926110    2.003871   -1.198471
 H         -0.846193    2.010081   -1.247404
 H          0.060917    0.767902   -2.135490
 H         -0.061479    0.702827    2.218235
 C         -4.592325   -1.920805   -0.117787
 C         -5.319566   -3.134719   -0.187248
 S         -5.674194   -0.522466   -0.059815
 C         -6.693513   -2.902889   -0.192779
 C         -7.095179   -1.555360   -0.127269
 H         -7.424809   -3.703239   -0.243461
 C          4.593465   -1.922323    0.122595
 C          5.321241   -3.136598    0.177321
 S          5.674645   -0.523332    0.069672
 C          6.695183   -2.904447    0.178246
 C          7.096198   -1.556319    0.121706
 H          7.426917   -3.704940    0.219289
 F         13.101112    4.470679   -0.226860
 F         10.751304    5.739833   -0.292605
 F        -10.754993    5.738840    0.280946
 F        -13.103966    4.469037    0.199566
 C          4.736700   -4.521303    0.233100
 H          4.084707   -4.655623    1.104444
 H          4.143799   -4.751021   -0.660564
 H          5.535591   -5.264700    0.298829
 C         -4.734581   -4.518889   -0.250923
 H         -4.084291   -4.648714   -1.124277
 H         -4.139825   -4.752721    0.640400
 H         -5.533316   -5.262245   -0.318979
