        85
S0: Total Energy = -4316.11866981
 C          3.194546   -1.255202    0.039500
 C          2.562940   -0.004340    0.040531
 C          1.169148   -0.093831    0.028557
 C          0.712936   -1.415851    0.017048
 C         -0.712773   -1.415778    0.001652
 C         -1.169027   -0.093728    0.006082
 C         -2.562807   -0.004127   -0.006600
 C         -3.194358   -1.254930   -0.021986
 S          1.995099   -2.571070    0.025948
 S         -1.994874   -2.570844   -0.022303
 C          0.000040    0.889504    0.024355
 H          3.121475    0.925694    0.049331
 H         -3.121363    0.925936   -0.004380
 C          8.503530   -1.063580    0.027822
 C          9.266137    0.093559    0.012393
 C          8.736619    1.471360    0.001743
 O          7.560550    1.824811    0.008015
 C          9.905152    2.379560   -0.018451
 C          9.900204    3.767986   -0.035286
 C         11.132109    4.405779   -0.053703
 C         12.319699    3.662905   -0.054790
 C         12.322620    2.273251   -0.037746
 C         11.086365    1.617486   -0.019279
 C         10.724367    0.174785    0.000825
 C         11.648469   -0.860484    0.006418
 C         13.061159   -0.654738   -0.007539
 N         14.220944   -0.538974   -0.018416
 C         11.310624   -2.247446    0.026714
 N         11.088641   -3.391919    0.043054
 H          9.060784   -1.993482    0.033338
 H          8.976482    4.336583   -0.034487
 H         13.277264    1.765506   -0.039817
 C         -8.503362   -1.063538   -0.033581
 C         -9.266114    0.093489   -0.017029
 C         -8.736737    1.471268    0.000905
 O         -7.560665    1.824755    0.003740
 C         -9.905423    2.379389    0.015000
 C         -9.900661    3.767784    0.034311
 C        -11.132697    4.405504    0.044885
 C        -12.320231    3.662595    0.035927
 C        -12.322965    2.272969    0.016637
 C        -11.086579    1.617278    0.006086
 C        -10.724390    0.174620   -0.013622
 C        -11.648386   -0.860699   -0.024843
 C        -13.061148   -0.655036   -0.019239
 N        -14.220983   -0.539330   -0.015290
 C        -11.310349   -2.247648   -0.042609
 N        -11.088230   -3.392120   -0.057048
 H         -9.060517   -1.993423   -0.046638
 H         -8.976984    4.336415    0.041091
 H        -13.277575    1.765190    0.010799
 C         -0.012299    1.762868    1.299423
 H          0.873245    2.406990    1.328551
 H         -0.899367    2.405479    1.312102
 C          0.012289    1.782286   -1.237085
 H          0.899301    2.425129   -1.239979
 H         -0.873278    2.426779   -1.256216
 H          0.020132    1.178955   -2.150010
 H         -0.020195    1.145562    2.202958
 C         -4.596632   -1.508354   -0.032074
 C         -5.251016   -2.757733   -0.050431
 S         -5.757705   -0.197409   -0.018412
 C         -6.641767   -2.649319   -0.052804
 C         -7.115463   -1.325594   -0.036368
 H         -7.322135   -3.492026   -0.065238
 C          4.596856   -1.508632    0.042063
 C          5.251352   -2.758059    0.049776
 S          5.757801   -0.197558    0.030585
 C          6.642098   -2.649567    0.046941
 C          7.115669   -1.325738    0.036098
 H          7.322545   -3.492291    0.051623
 F         13.481425    4.330518   -0.073083
 F         11.215146    5.742300   -0.070957
 F        -11.215921    5.741991    0.063818
 F        -13.482090    4.330140    0.046614
 O         -4.509887   -3.888306   -0.062951
 C         -5.204562   -5.139119   -0.081421
 H         -5.828824   -5.250740    0.812185
 H         -5.823170   -5.227199   -0.981564
 H         -4.431743   -5.907535   -0.089053
 O          4.510308   -3.888727    0.058518
 C          5.205055   -5.139616    0.065890
 H          5.825276   -5.245551   -0.831219
 H          5.827731   -5.233420    0.962640
 H          4.432273   -5.908079    0.072161
        85
T1: Total Energy = -4316.09012340
 C          3.187134   -1.311837    0.056523
 C          2.537485   -0.038992    0.055468
 C          1.168628   -0.129157    0.040248
 C          0.694138   -1.475920    0.026711
 C         -0.693810   -1.475744    0.002290
 C         -1.168300   -0.128906    0.005863
 C         -2.537125   -0.038539   -0.011828
 C         -3.186716   -1.311268   -0.031854
 S          1.985323   -2.640206    0.042757
 S         -1.984914   -2.639725   -0.031237
 C          0.000164    0.854662    0.031287
 H          3.100855    0.887524    0.065040
 H         -3.100512    0.888022   -0.010123
 C          8.474186   -1.060816    0.036375
 C          9.227836    0.110232    0.017677
 C          8.684462    1.484765    0.009632
 O          7.504770    1.826359    0.023456
 C          9.842600    2.405374   -0.018711
 C          9.824732    3.793001   -0.037160
 C         11.051208    4.442802   -0.064248
 C         12.243713    3.710273   -0.072005
 C         12.259226    2.319375   -0.053125
 C         11.030004    1.652578   -0.025969
 C         10.678441    0.206574   -0.001719
 C         11.615522   -0.824237    0.000681
 C         13.024508   -0.604188   -0.021682
 N         14.183575   -0.476145   -0.039405
 C         11.294052   -2.213566    0.026130
 N         11.088640   -3.361757    0.046462
 H          9.041907   -1.983693    0.038816
 H          8.895938    4.353301   -0.031251
 H         13.218404    1.820278   -0.060689
 C         -8.473844   -1.060666   -0.044816
 C         -9.227785    0.110166   -0.024603
 C         -8.684687    1.484695   -0.005253
 O         -7.504955    1.826428   -0.005626
 C         -9.843173    2.405088    0.014832
 C         -9.825684    3.792654    0.037744
 C        -11.052463    4.442245    0.054086
 C        -12.244887    3.709576    0.047123
 C        -12.260017    2.318738    0.024097
 C        -11.030490    1.652152    0.007711
 C        -10.678512    0.206259   -0.017082
 C        -11.615372   -0.824691   -0.028984
 C        -13.024539   -0.604894   -0.018723
 N        -14.183740   -0.477053   -0.011115
 C        -11.293456   -2.213954   -0.052266
 N        -11.087684   -3.362106   -0.071150
 H         -9.041401   -1.983548   -0.058286
 H         -8.896957    4.353070    0.043016
 H        -13.219155    1.819523    0.020132
 C         -0.018869    1.725032    1.308161
 H          0.866360    2.368910    1.341173
 H         -0.906836    2.366034    1.316048
 C          0.019154    1.748088   -1.229400
 H          0.907265    2.388986   -1.225934
 H         -0.865884    2.392770   -1.250339
 H          0.030540    1.146650   -2.143401
 H         -0.030720    1.107016    2.211040
 C         -4.563219   -1.540520   -0.045323
 C         -5.246500   -2.792258   -0.065403
 S         -5.727989   -0.207961   -0.031858
 C         -6.627567   -2.669418   -0.067764
 C         -7.090642   -1.332634   -0.049633
 H         -7.318936   -3.502544   -0.080626
 C          4.563695   -1.541117    0.060207
 C          5.247150   -2.792905    0.064930
 S          5.728273   -0.208363    0.050369
 C          6.628201   -2.669929    0.059635
 C          7.091075   -1.332989    0.049460
 H          7.319681   -3.503064    0.061030
 F         13.400706    4.386860   -0.098745
 F         11.121019    5.781145   -0.083762
 F        -11.122655    5.780516    0.076866
 F        -13.402190    4.385963    0.063517
 O         -4.516779   -3.921183   -0.078906
 C         -5.215711   -5.173279   -0.098944
 H         -5.839091   -5.279604    0.795002
 H         -5.833568   -5.253682   -0.999407
 H         -4.443831   -5.942089   -0.107634
 O          4.517567   -3.921975    0.073341
 C          5.216603   -5.174169    0.077505
 H          5.834168   -5.272384   -0.821392
 H          5.840302   -5.262730    0.973158
 H          4.444780   -5.943056    0.084281
        85
S1: Total Energy = -4316.06852047
 C          3.188559   -1.283967    0.075631
 C          2.550496   -0.022088    0.085672
 C          1.168554   -0.111331    0.069584
 C          0.703056   -1.445989    0.044866
 C         -0.702276   -1.445658    0.020300
 C         -1.167872   -0.110863    0.034346
 C         -2.549748   -0.021199    0.014244
 C         -3.187610   -1.282839   -0.017836
 S          1.989744   -2.606146    0.050745
 S         -1.988718   -2.605198   -0.024549
 C          0.000299    0.872227    0.069327
 H          3.112219    0.905387    0.103317
 H         -3.111543    0.906380    0.022451
 C          8.492944   -1.063067    0.037457
 C          9.247505    0.099377    0.015829
 C          8.707345    1.477668    0.010652
 O          7.528319    1.820110    0.031810
 C          9.867389    2.392928   -0.025385
 C          9.853368    3.780444   -0.045301
 C         11.081516    4.427170   -0.081183
 C         12.272360    3.690684   -0.095772
 C         12.285270    2.300294   -0.075230
 C         11.053816    1.634719   -0.039448
 C         10.703401    0.193980   -0.011764
 C         11.636015   -0.842502   -0.013473
 C         13.045265   -0.628964   -0.045374
 N         14.205008   -0.504545   -0.070990
 C         11.308043   -2.229440    0.016501
 N         11.095496   -3.376765    0.040271
 H          9.055165   -1.989628    0.036809
 H          8.926040    4.343135   -0.034124
 H         13.243073    1.798671   -0.088320
 C         -8.492105   -1.062769   -0.054626
 C         -9.247340    0.099170   -0.030279
 C         -8.707868    1.477356    0.002599
 O         -7.528781    1.820043    0.014233
 C         -9.868730    2.392156    0.018734
 C         -9.855635    3.779472    0.050192
 C        -11.084491    4.425781    0.059756
 C        -12.275103    3.689112    0.037506
 C        -12.287079    2.298920    0.006103
 C        -11.054917    1.633760   -0.003154
 C        -10.703520    0.193292   -0.032399
 C        -11.635601   -0.843427   -0.054909
 C        -13.045301   -0.630409   -0.053927
 N        -14.205370   -0.506403   -0.054152
 C        -11.306527   -2.230206   -0.079659
 N        -11.093083   -3.377431   -0.100020
 H         -9.053916   -1.989251   -0.079072
 H         -8.928486    4.342326    0.066865
 H        -13.244754    1.797126   -0.009567
 C         -0.019146    1.730463    1.354671
 H          0.866008    2.374147    1.394673
 H         -0.906877    2.371757    1.368714
 C          0.019565    1.777962   -1.182710
 H          0.907289    2.419440   -1.173060
 H         -0.865539    2.422829   -1.198140
 H          0.031519    1.185053   -2.102270
 H         -0.031495    1.103423    2.251309
 C         -4.578651   -1.526885   -0.038513
 C         -5.245396   -2.775041   -0.071320
 S         -5.742347   -0.204320   -0.019473
 C         -6.635745   -2.659230   -0.079398
 C         -7.100750   -1.331522   -0.053364
 H         -7.321292   -3.497091   -0.102087
 C          4.579754   -1.528066    0.074605
 C          5.246933   -2.776405    0.074222
 S          5.742981   -0.205006    0.063054
 C          6.637256   -2.660317    0.064771
 C          7.101779   -1.332212    0.055808
 H          7.323084   -3.498257    0.062069
 F         13.430220    4.364912   -0.130858
 F         11.155167    5.765189   -0.102930
 F        -11.159086    5.763580    0.090111
 F        -13.433676    4.362951    0.047379
 O         -4.513033   -3.905471   -0.090201
 C         -5.209764   -5.157483   -0.124870
 H         -5.837914   -5.274323    0.764639
 H         -5.822714   -5.232720   -1.029349
 H         -4.436810   -5.925366   -0.136052
 O          4.514895   -3.907193    0.082073
 C          5.211881   -5.159546    0.080249
 H          5.826462   -5.257886   -0.820900
 H          5.838498   -5.253492    0.973527
 H          4.439050   -5.927602    0.087346
