        89
S0: Total Energy = -3737.05870745
 C         -6.782331   -0.675498   -0.135296
 C         -6.501655   -2.058864   -0.255380
 C         -5.135295   -2.366671   -0.228660
 C         -4.229732   -1.298231   -0.091695
 C         -2.900576   -1.752936   -0.089122
 C         -2.788209   -3.147013   -0.214341
 C         -1.423573   -3.475231   -0.146963
 C         -0.700598   -4.703092   -0.098648
 C          0.700783   -4.703264    0.097006
 S         -4.330624   -3.947394   -0.354404
 C          6.782565   -0.675702    0.133502
 C          6.502087   -2.059446    0.249567
 C          5.135677   -2.367157    0.224351
 C          4.229865   -1.298245    0.092803
 C          2.900707   -1.752958    0.090983
 C          2.788608   -3.147474    0.211430
 C          1.423880   -3.475469    0.145390
 C          0.714533   -2.237241    0.023443
 C         -0.714511   -2.237348   -0.019612
 S          4.331273   -3.948337    0.345799
 C         -8.104905   -0.197586   -0.128357
 C         -8.685401    1.061378   -0.029513
 C         -7.964787    2.341495    0.088712
 O         -6.749206    2.526612    0.131132
 C         -8.987012    3.409058    0.147735
 C         -8.778551    4.777767    0.256935
 C         -9.903691    5.589005    0.292746
 C        -11.187116    5.031471    0.220372
 C        -11.393101    3.660920    0.111640
 C        -10.266246    2.831590    0.074526
 C        -10.116425    1.355121   -0.032627
 C        -11.183482    0.470768   -0.110574
 C        -12.550029    0.884634   -0.102916
 N        -13.679728    1.171367   -0.100749
 C        -11.057007   -0.947800   -0.203130
 N        -11.014253   -2.110625   -0.279429
 H         -8.811191   -1.013791   -0.223232
 H         -7.781829    5.201836    0.312186
 F         -9.789956    6.919124    0.396679
 F        -12.238488    5.860982    0.258742
 H        -12.411464    3.301437    0.060628
 C          8.105148   -0.197842    0.125337
 C          8.685538    1.061341    0.028695
 C          7.964782    2.341745   -0.085479
 O          6.749117    2.527078   -0.124394
 C          8.986985    3.409279   -0.145388
 C          8.778426    4.778160   -0.252229
 C          9.903576    5.589306   -0.289794
 C         11.187107    5.031516   -0.221389
 C         11.393187    3.660801   -0.114940
 C         10.266323    2.831560   -0.076095
 C         10.116589    1.354971    0.029556
 C         11.183717    0.470479    0.104975
 C         12.550280    0.884251    0.095335
 N         13.679999    1.170888    0.091459
 C         11.057306   -0.948132    0.196953
 N         11.014611   -2.110996    0.272706
 H          8.811569   -1.014371    0.216335
 H          7.781623    5.202422   -0.304458
 F          9.789748    6.919572   -0.391730
 F         12.238488    5.860938   -0.261375
 H         12.411630    3.301122   -0.066990
 N          1.640542   -1.194765   -0.035413
 N         -1.640672   -1.195148    0.041638
 N         -1.124187   -5.976912   -0.166497
 N          1.126473   -5.977226    0.147492
 C         -1.447528    0.147851    0.588695
 H         -2.307787    0.396605    1.214606
 H         -0.561181    0.163609    1.222792
 H         -1.353474    0.902151   -0.197407
 C          1.446269    0.150714   -0.575863
 H          1.351382    0.901060    0.213922
 H          2.306495    0.403308   -1.200259
 H          0.560104    0.168845   -1.210191
 C          7.566249   -3.118840    0.387678
 H          8.259884   -3.109118   -0.459666
 H          8.162233   -2.973641    1.295280
 H          7.120605   -4.115481    0.439528
 C         -7.565550   -3.117810   -0.398926
 H         -8.261196   -3.110402    0.446785
 H         -8.159349   -2.970083   -1.307559
 H         -7.119826   -4.114326   -0.452468
 N          0.002566   -6.675114   -0.019971
 C         -0.006036   -8.128585    0.041050
 H         -0.138147   -8.463059    1.074484
 H         -0.831252   -8.490845   -0.571744
 H          0.945995   -8.492832   -0.344859
Se          5.131790    0.380333   -0.013190
Se         -5.131823    0.380004    0.018240
        89
T1: Total Energy = -3737.01602746
 C         -6.771319   -0.678670   -0.125764
 C         -6.481557   -2.073305   -0.238098
 C         -5.122358   -2.370682   -0.211490
 C         -4.210547   -1.296616   -0.082582
 C         -2.893211   -1.742737   -0.078942
 C         -2.772716   -3.157549   -0.193545
 C         -1.428535   -3.480566   -0.120344
 C         -0.700925   -4.710488   -0.083251
 C          0.701264   -4.710623    0.081059
 S         -4.318510   -3.959497   -0.327887
 C          6.771661   -0.678887    0.124755
 C          6.482084   -2.073898    0.232647
 C          5.122821   -2.371141    0.207707
 C          4.210768   -1.296570    0.084912
 C          2.893420   -1.742706    0.081861
 C          2.773201   -3.157974    0.190927
 C          1.428904   -3.480722    0.119061
 C          0.701332   -2.226455    0.009460
 C         -0.701241   -2.226618   -0.004684
 S          4.319237   -3.960441    0.319060
 C         -8.095142   -0.208225   -0.120830
 C         -8.677986    1.058808   -0.029133
 C         -7.954100    2.341241    0.076701
 O         -6.737239    2.521062    0.113755
 C         -8.971442    3.412238    0.131020
 C         -8.761077    4.780662    0.229147
 C         -9.885856    5.594498    0.262857
 C        -11.168026    5.036689    0.199390
 C        -11.375992    3.663898    0.101672
 C        -10.251196    2.833312    0.066613
 C        -10.100545    1.355878   -0.029489
 C        -11.173088    0.466809   -0.097831
 C        -12.536938    0.883276   -0.092716
 N        -13.666590    1.173514   -0.092302
 C        -11.052277   -0.951500   -0.175380
 N        -11.021116   -2.116242   -0.238595
 H         -8.801034   -1.024682   -0.207895
 H         -7.763831    5.204398    0.277823
 F         -9.769165    6.926374    0.356376
 F        -12.220447    5.865764    0.235246
 H        -12.394981    3.305247    0.057283
 C          8.095489   -0.208486    0.118309
 C          8.678114    1.058788    0.028729
 C          7.953910    2.341376   -0.072891
 O          6.736933    2.521235   -0.105792
 C          8.971085    3.412444   -0.128893
 C          8.760438    4.780966   -0.225040
 C          9.885118    5.594829   -0.261304
 C         11.167467    5.036957   -0.202166
 C         11.375710    3.664077   -0.106320
 C         10.251019    2.833459   -0.068756
 C         10.100663    1.355929    0.026376
 C         11.173425    0.466929    0.092170
 C         12.537219    0.883541    0.084429
 N         13.666835    1.173903    0.081779
 C         11.052943   -0.951396    0.169934
 N         11.022121   -2.116140    0.233315
 H          8.801553   -1.025228    0.201151
 H          7.763055    5.204748   -0.270393
 F          9.768158    6.926791   -0.353262
 F         12.219784    5.866057   -0.240422
 H         12.394826    3.305379   -0.065305
 N          1.639270   -1.182583   -0.039810
 N         -1.639331   -1.183040    0.047536
 N         -1.126409   -5.981600   -0.143225
 N          1.128671   -5.981843    0.122486
 C         -1.449803    0.161363    0.594241
 H         -2.315028    0.410814    1.212870
 H         -0.568025    0.177136    1.234834
 H         -1.349581    0.913085   -0.193239
 C          1.448552    0.164716   -0.578846
 H          1.347510    0.911826    0.212920
 H          2.313731    0.418493   -1.195752
 H          0.566957    0.183417   -1.219652
 C          7.551738   -3.127410    0.362025
 H          8.240646   -3.112741   -0.489698
 H          8.153997   -2.981575    1.265856
 H          7.112162   -4.127108    0.414809
 C         -7.550951   -3.126304   -0.373699
 H         -8.242396   -3.114066    0.475995
 H         -8.150475   -2.977758   -1.278919
 H         -7.111321   -4.125892   -0.428096
 N          0.002358   -6.681878   -0.020939
 C         -0.004496   -8.136281    0.037232
 H         -0.115357   -8.471310    1.072740
 H         -0.842053   -8.496813   -0.559414
 H          0.939674   -8.498516   -0.368975
Se          5.132009    0.387345   -0.010090
Se         -5.131920    0.386980    0.016796
        89
S1: Total Energy = -3736.99969147
 C         -6.774246   -0.680928   -0.125644
 C         -6.490851   -2.067715   -0.239052
 C         -5.124288   -2.370258   -0.212326
 C         -4.217918   -1.299596   -0.081887
 C         -2.893761   -1.750060   -0.080595
 C         -2.777088   -3.157892   -0.199106
 C         -1.427408   -3.482512   -0.126943
 C         -0.700981   -4.711081   -0.087931
 C          0.701161   -4.711243    0.083680
 S         -4.323383   -3.957280   -0.333225
 C          6.774289   -0.680957    0.124522
 C          6.491090   -2.068190    0.232705
 C          5.124476   -2.370616    0.207608
 C          4.217818   -1.299393    0.084007
 C          2.893666   -1.749931    0.083127
 C          2.777342   -3.158323    0.195221
 C          1.427566   -3.482689    0.124349
 C          0.703880   -2.230946    0.012416
 C         -0.704078   -2.231139   -0.008107
 S          4.323918   -3.958252    0.322511
 C         -8.102741   -0.204241   -0.117872
 C         -8.680783    1.058079   -0.026352
 C         -7.953909    2.340546    0.073549
 O         -6.736560    2.517413    0.108295
 C         -8.969372    3.412035    0.123724
 C         -8.756485    4.780412    0.214455
 C         -9.879745    5.596882    0.245049
 C        -11.163581    5.040844    0.185708
 C        -11.375147    3.668628    0.095723
 C        -10.251640    2.833658    0.063762
 C        -10.107707    1.359882   -0.023596
 C        -11.181014    0.469757   -0.081467
 C        -12.544326    0.886438   -0.075611
 N        -13.673910    1.178533   -0.074230
 C        -11.060098   -0.948553   -0.145800
 N        -11.026454   -2.114269   -0.197430
 H         -8.809191   -1.020787   -0.203173
 H         -7.758298    5.202324    0.259934
 F         -9.760563    6.929012    0.331418
 F        -12.213550    5.873003    0.218084
 H        -12.394832    3.311608    0.054205
 C          8.102817   -0.204366    0.115860
 C          8.680876    1.058134    0.026943
 C          7.954009    2.340844   -0.069845
 O          6.736602    2.518009   -0.100856
 C          8.969555    3.412135   -0.122345
 C          8.756718    4.780557   -0.212540
 C          9.880065    5.596787   -0.246140
 C         11.163932    5.040480   -0.190120
 C         11.375440    3.668232   -0.100500
 C         10.251848    2.833492   -0.065607
 C         10.107834    1.359755    0.022399
 C         11.181105    0.469572    0.080105
 C         12.544465    0.886070    0.071970
 N         13.674094    1.177973    0.068674
 C         11.060141   -0.948594    0.147441
 N         11.026481   -2.114193    0.201695
 H          8.809328   -1.021294    0.196922
 H          7.758505    5.202677   -0.255449
 F          9.760939    6.928933   -0.332356
 F         12.213994    5.872405   -0.225414
 H         12.395157    3.311009   -0.061639
 N          1.639766   -1.188652   -0.039393
 N         -1.640165   -1.189228    0.047212
 N         -1.125847   -5.983011   -0.150292
 N          1.128085   -5.983293    0.126788
 C         -1.451320    0.157947    0.587586
 H         -2.318718    0.410833    1.201507
 H         -0.572198    0.176099    1.231621
 H         -1.347950    0.905379   -0.203451
 C          1.449603    0.161856   -0.570812
 H          1.345183    0.903872    0.225186
 H          2.317017    0.419773   -1.182590
 H          0.570770    0.183463   -1.215183
 C          7.557453   -3.125382    0.364730
 H          8.254316   -3.107356   -0.480114
 H          8.151002   -2.986866    1.275365
 H          7.114991   -4.124246    0.406980
 C         -7.556888   -3.124343   -0.378161
 H         -8.257231   -3.108537    0.463825
 H         -8.146621   -2.983233   -1.290900
 H         -7.114415   -4.123165   -0.421323
 N          0.002396   -6.682730   -0.022427
 C         -0.004678   -8.137255    0.034854
 H         -0.121621   -8.472608    1.069569
 H         -0.838710   -8.497507   -0.566858
 H          0.941959   -8.499070   -0.365904
Se          5.132586    0.383295   -0.011479
Se         -5.132833    0.382700    0.018679
