        91
S0: Total Energy = -4500.33149295
 C          6.644616    0.567084   -0.135584
 C          6.484686    1.970867   -0.268678
 C          5.134969    2.335925   -0.244208
 C          4.241429    1.258178   -0.100978
 C          2.902385    1.701721   -0.098118
 C          2.784395    3.090936   -0.228923
 C          1.416125    3.409790   -0.160864
 C          0.715437    4.657848   -0.110064
 C         -0.715420    4.657857    0.109865
 S          5.067711   -0.262488    0.006477
 S          4.322295    3.908161   -0.371497
 C         -6.644638    0.567143    0.135639
 C         -6.484697    1.970924    0.268703
 C         -5.134977    2.335977    0.244142
 C         -4.241453    1.258226    0.100874
 C         -2.902403    1.701755    0.097968
 C         -2.784395    3.090968    0.228765
 C         -1.416123    3.409807    0.160671
 C         -0.716261    2.174079    0.024786
 C          0.716247    2.174069   -0.024983
 S         -5.067749   -0.262436   -0.006520
 S         -4.322284    3.908207    0.371393
 C          7.930045   -0.021942   -0.124810
 C          8.406972   -1.316337   -0.009615
 C          7.586942   -2.536447    0.154794
 O          6.361860   -2.613313    0.205106
 C          8.524655   -3.676351    0.250591
 C          8.219951   -5.018245    0.418796
 C          9.264218   -5.951287    0.492229
 C         10.585364   -5.477699    0.398529
 C         10.892687   -4.125667    0.228533
 C          9.844386   -3.201460    0.150843
 C          9.813033   -1.727184   -0.021020
 C         10.941679   -0.933172   -0.169118
 C         12.273600   -1.448747   -0.170022
 N         13.380596   -1.813397   -0.178621
 C         10.921701    0.483194   -0.343518
 N         10.963861    1.639532   -0.489184
 H          8.694894    0.737543   -0.230005
 H          7.181681   -5.330099    0.493361
 H         11.930489   -3.828116    0.165889
 C         -7.930069   -0.021893    0.124962
 C         -8.406973   -1.316290    0.009770
 C         -7.586921   -2.536371   -0.154769
 O         -6.361840   -2.613208   -0.205131
 C         -8.524612   -3.676286   -0.250597
 C         -8.219866   -5.018191   -0.418944
 C         -9.264068   -5.951233   -0.492407
 C        -10.585269   -5.477699   -0.398472
 C        -10.892618   -4.125733   -0.228333
 C         -9.844319   -3.201464   -0.150701
 C         -9.813019   -1.727196    0.021267
 C        -10.941687   -0.933249    0.169514
 C        -12.273589   -1.448880    0.170469
 N        -13.380570   -1.813572    0.179112
 C        -10.921760    0.483106    0.344019
 N        -10.963977    1.639431    0.489773
 H         -8.694918    0.737580    0.230239
 H         -7.181587   -5.329988   -0.493566
 H        -11.930419   -3.828215   -0.165508
 N         -1.644727    1.140353   -0.040560
 N          1.644698    1.140336    0.040385
 N          1.248890    5.870506   -0.192439
 N         -1.248858    5.870521    0.192238
 C          1.457393   -0.213112    0.563493
 H          2.324486   -0.471686    1.174976
 H          0.577045   -0.240743    1.205236
 H          1.358093   -0.951747   -0.236382
 C         -1.457447   -0.213090   -0.563692
 H         -1.358132   -0.951738    0.236169
 H         -2.324562   -0.471649   -1.175151
 H         -0.577118   -0.240721   -1.205460
 C         -7.613730    2.955875    0.410116
 H         -8.254081    2.965209   -0.478951
 H         -8.254857    2.720703    1.266014
 H         -7.227690    3.968762    0.551931
 C          7.613732    2.955814   -0.410006
 H          8.253971    2.965194    0.479141
 H          8.254968    2.720602   -1.265811
 H          7.227706    3.968692   -0.551921
 S          0.000022    6.947977   -0.000100
 H        -11.403247   -6.190770   -0.462148
 H         11.403358   -6.190733    0.462276
 C          8.983391   -7.425431    0.644985
 H          8.007553   -7.600252    1.108022
 H          8.977024   -7.923800   -0.333421
 H          9.748353   -7.917629    1.254240
 C         -8.983476   -7.425375   -0.645649
 H         -8.003762   -7.600376   -1.100296
 H         -8.986725   -7.925845    0.331686
 H         -9.743498   -7.915397   -1.262852
        91
T1: Total Energy = -4500.28534526
 C         -6.634023    0.566973    0.135277
 C         -6.461854    1.986183    0.252179
 C         -5.120289    2.336289    0.227820
 C         -4.221117    1.249395    0.098198
 C         -2.895598    1.679474    0.090124
 C         -2.766636    3.091709    0.201802
 C         -1.419376    3.403676    0.127376
 C         -0.716465    4.655422    0.089750
 C          0.716468    4.655442   -0.088846
 S         -5.066674   -0.277302    0.012774
 S         -4.303635    3.914893    0.337640
 C          6.634026    0.566996   -0.135386
 C          6.461852    1.986226   -0.252038
 C          5.120290    2.336334   -0.227539
 C          4.221122    1.249416   -0.098101
 C          2.895604    1.679496   -0.089879
 C          2.766639    3.091753   -0.201271
 C          1.419381    3.403705   -0.126732
 C          0.701524    2.149196   -0.008972
 C         -0.701516    2.149191    0.009367
 S          5.066679   -0.277294   -0.012940
 S          4.303634    3.914962   -0.336994
 C         -7.921061   -0.007290    0.116653
 C         -8.404193   -1.311555    0.016622
 C         -7.583276   -2.541425   -0.069268
 O         -6.356932   -2.619834   -0.085865
 C         -8.519238   -3.684572   -0.128118
 C         -8.215494   -5.032648   -0.213568
 C         -9.262829   -5.967636   -0.260923
 C        -10.580985   -5.485587   -0.225251
 C        -10.887555   -4.122376   -0.140029
 C         -9.839590   -3.199242   -0.089420
 C         -9.802494   -1.716086   -0.006305
 C        -10.936208   -0.904597    0.029504
 C        -12.267853   -1.415412    0.009989
 N        -13.376540   -1.777406   -0.002067
 C        -10.918805    0.519960    0.081104
 N        -10.969646    1.685181    0.120546
 H         -8.684077    0.755791    0.198144
 H         -7.176760   -5.351047   -0.244673
 H        -11.925537   -3.819601   -0.118263
 C          7.921064   -0.007277   -0.116990
 C          8.404198   -1.311555   -0.017117
 C          7.583272   -2.541385    0.069259
 O          6.356928   -2.619768    0.086034
 C          8.519217   -3.684529    0.128391
 C          8.215456   -5.032562    0.214444
 C          9.262782   -5.967550    0.262071
 C         10.580940   -5.485540    0.226043
 C         10.887526   -4.122370    0.140190
 C          9.839573   -3.199239    0.089307
 C          9.802495   -1.716121    0.005510
 C         10.936230   -0.904705   -0.031220
 C         12.267862   -1.415562   -0.011867
 N         13.376540   -1.777589    0.000022
 C         10.918881    0.519815   -0.083832
 N         10.969773    1.685002   -0.124208
 H          8.684071    0.755811   -0.198488
 H          7.176719   -5.350924    0.245809
 H         11.925511   -3.819627    0.118176
 N          1.644231    1.113268    0.040519
 N         -1.644222    1.113275   -0.040358
 N         -1.253346    5.864657    0.158490
 N          1.253346    5.864692   -0.157343
 C         -1.461711   -0.240608   -0.565407
 H         -2.335948   -0.501011   -1.165848
 H         -0.588864   -0.266938   -1.217779
 H         -1.351033   -0.977757    0.234190
 C          1.461738   -0.240707    0.565343
 H          1.351048   -0.977718   -0.234379
 H          2.335988   -0.501210    1.165722
 H          0.588903   -0.267154    1.217728
 C          7.594329    2.966242   -0.385816
 H          8.290394    2.901953    0.457623
 H          8.176923    2.786939   -1.296659
 H          7.217218    3.991756   -0.428824
 C         -7.594332    2.966171    0.386136
 H         -8.290654    2.901746   -0.457077
 H         -8.176637    2.786960    1.297188
 H         -7.217251    3.991707    0.428904
 S         -0.000002    6.946730    0.000673
 H         11.400640   -6.198211    0.268099
 H        -11.400693   -6.198262   -0.267091
 C         -8.976042   -7.447232   -0.328165
 H         -8.132750   -7.659174   -0.994172
 H         -8.711966   -7.840041    0.662534
 H         -9.844954   -8.008628   -0.684182
 C          8.975967   -7.447109    0.330001
 H          8.133119   -7.658787    0.996657
 H          8.711184   -7.840235   -0.660382
 H          9.845091   -8.008428    0.685619
        91
S1: Total Energy = -4500.26847863
 C         -6.634064    0.570349    0.124292
 C         -6.469963    1.980711    0.245461
 C         -5.121905    2.338197    0.222739
 C         -4.226626    1.255830    0.091453
 C         -2.894941    1.692085    0.087346
 C         -2.771036    3.097921    0.204921
 C         -1.418687    3.412106    0.132504
 C         -0.716180    4.662426    0.093101
 C          0.716257    4.662436   -0.093116
 S         -5.064944   -0.269183   -0.005280
 S         -4.310336    3.916582    0.338583
 C          6.634107    0.570327   -0.124418
 C          6.470030    1.980711   -0.245361
 C          5.121967    2.338197   -0.222803
 C          4.226664    1.255809   -0.091879
 C          2.894979    1.692069   -0.087884
 C          2.771099    3.097931   -0.205169
 C          1.418746    3.412114   -0.132783
 C          0.704397    2.160876   -0.011753
 C         -0.704360    2.160884    0.011162
 S          5.064961   -0.269224    0.004731
 S          4.310424    3.916612   -0.338422
 C         -7.924905   -0.014326    0.117379
 C         -8.401527   -1.313825    0.012448
 C         -7.576550   -2.535311   -0.145940
 O         -6.350480   -2.605196   -0.192446
 C         -8.508598   -3.677740   -0.241303
 C         -8.201125   -5.017259   -0.404438
 C         -9.245439   -5.955037   -0.477409
 C        -10.564583   -5.482493   -0.385272
 C        -10.875862   -4.127993   -0.219379
 C         -9.831223   -3.201021   -0.144040
 C         -9.801455   -1.729369    0.024748
 C        -10.935744   -0.929538    0.173986
 C        -12.264849   -1.445565    0.170391
 N        -13.371915   -1.814063    0.174454
 C        -10.918280    0.483541    0.355429
 N        -10.966016    1.639972    0.508832
 H         -8.689092    0.746218    0.213861
 H         -7.161793   -5.327460   -0.475441
 H        -11.914434   -3.832837   -0.157098
 C          7.924945   -0.014354   -0.117316
 C          8.401527   -1.313873   -0.012443
 C          7.576491   -2.535362    0.145592
 O          6.350405   -2.605244    0.191678
 C          8.508499   -3.677804    0.241188
 C          8.200965   -5.017318    0.404143
 C          9.245258   -5.955122    0.477390
 C         10.564417   -5.482594    0.385626
 C         10.875763   -4.128073    0.219899
 C          9.831167   -3.201090    0.144327
 C          9.801454   -1.729433   -0.024417
 C         10.935783   -0.929610   -0.173390
 C         12.264884   -1.445643   -0.169476
 N         13.371953   -1.814138   -0.173258
 C         10.918365    0.483460   -0.354907
 N         10.966124    1.639884   -0.508357
 H          8.689160    0.746199   -0.213504
 H          7.161607   -5.327512    0.474789
 H         11.914358   -3.832938    0.157886
 N          1.643984    1.126237    0.043385
 N         -1.643960    1.126269   -0.044142
 N         -1.252443    5.872675    0.164417
 N          1.252539    5.872694   -0.164154
 C         -1.461124   -0.230829   -0.561493
 H         -2.335586   -0.493923   -1.160123
 H         -0.588740   -0.260367   -1.214074
 H         -1.350851   -0.963014    0.242524
 C          1.461102   -0.230994    0.560370
 H          1.350756   -0.962949   -0.243846
 H          2.335582   -0.494295    1.158880
 H          0.588748   -0.260673    1.212989
 C          7.602006    2.962806   -0.374173
 H          8.248974    2.951176    0.510260
 H          8.236950    2.741309   -1.238702
 H          7.220796    3.980712   -0.493259
 C         -7.601914    2.962784    0.374653
 H         -8.249080    2.951260   -0.509636
 H         -8.236664    2.741179    1.239298
 H         -7.220679    3.980676    0.493780
 S          0.000053    6.953297    0.000237
 H         11.381466   -6.196992    0.446467
 H        -11.381657   -6.196878   -0.445967
 C         -8.952320   -7.426231   -0.634519
 H         -8.192792   -7.600308   -1.404968
 H         -8.564537   -7.851076    0.300600
 H         -9.850888   -7.987764   -0.906200
 C          8.951996   -7.426275    0.634628
 H          8.195527   -7.600468    1.408085
 H          8.560086   -7.850245   -0.299151
 H          9.851339   -7.988474    0.902313
