        85
S0: Total Energy = -4429.55940115
 C         -6.649918    0.497373    0.157334
 C         -6.480797    1.902348    0.292666
 C         -5.130300    2.258801    0.264368
 C         -4.243264    1.173879    0.115160
 C         -2.902875    1.609812    0.106960
 C         -2.777349    2.999745    0.240157
 C         -1.409369    3.311966    0.168408
 C         -0.724938    4.577227    0.118051
 C          0.724948    4.577228   -0.118034
 S         -5.078238   -0.340517    0.008093
 S         -4.307512    3.825706    0.390299
 C          6.649935    0.497384   -0.157357
 C          6.480811    1.902360   -0.292685
 C          5.130314    2.258811   -0.264371
 C          4.243281    1.173887   -0.115163
 C          2.902890    1.609818   -0.106959
 C          2.777362    2.999751   -0.240150
 C          1.409382    3.311970   -0.168397
 C          0.716952    2.075282   -0.027971
 C         -0.716937    2.075281    0.027976
 S          5.078257   -0.340508   -0.008105
 S          4.307524    3.825716   -0.390287
 C         -7.936687   -0.082543    0.149960
 C         -8.423038   -1.376373    0.034042
 C         -7.610946   -2.598756   -0.133188
 O         -6.387380   -2.690250   -0.187186
 C         -8.556806   -3.732811   -0.227952
 C         -8.252722   -5.077633   -0.395821
 C         -9.317448   -5.964696   -0.460344
 C        -10.636974   -5.503632   -0.358321
 C        -10.938888   -4.157532   -0.189552
 C         -9.873276   -3.251941   -0.122711
 C         -9.829718   -1.775204    0.049187
 C        -10.955141   -0.977207    0.197584
 C        -12.288136   -1.489373    0.198631
 N        -13.393792   -1.857815    0.206177
 C        -10.927921    0.439275    0.370693
 N        -10.964420    1.595715    0.515349
 H         -8.697478    0.680426    0.259062
 H         -7.228862   -5.426932   -0.474257
 F         -9.110719   -7.277645   -0.621413
 F        -11.626606   -6.403805   -0.427973
 H        -11.979800   -3.874152   -0.118451
 C          7.936703   -0.082535   -0.149988
 C          8.423042   -1.376368   -0.034060
 C          7.610935   -2.598737    0.133200
 O          6.387368   -2.690213    0.187206
 C          8.556782   -3.732802    0.227982
 C          8.252681   -5.077616    0.395885
 C          9.317395   -5.964692    0.460420
 C         10.636927   -5.503648    0.358375
 C         10.938857   -4.157556    0.189571
 C          9.873256   -3.251952    0.122718
 C          9.829717   -1.775219   -0.049219
 C         10.955153   -0.977247   -0.197662
 C         12.288138   -1.489440   -0.198715
 N         13.393787   -1.857903   -0.206267
 C         10.927958    0.439229   -0.370822
 N         10.964491    1.595664   -0.515510
 H          8.697497    0.680428   -0.259098
 H          7.228817   -5.426900    0.474338
 F          9.110651   -7.277634    0.621523
 F         11.626548   -6.403831    0.428041
 H         11.979772   -3.874191    0.118454
 N          1.647071    1.045634    0.037751
 N         -1.647054    1.045631   -0.037751
 N         -1.321111    5.741395    0.217291
 N          1.321118    5.741398   -0.217268
 C         -1.463803   -0.312727   -0.550687
 H         -2.334511   -0.574454   -1.155541
 H         -0.587270   -0.346616   -1.197166
 H         -1.361717   -1.044190    0.255283
 C          1.463822   -0.312727    0.550680
 H          1.361738   -1.044187   -0.255294
 H          2.334532   -0.574456    1.155532
 H          0.587290   -0.346621    1.197159
 C          7.604367    2.892402   -0.440580
 H          8.254774    2.898252    0.441201
 H          8.235694    2.664398   -1.305874
 H          7.212894    3.904647   -0.571451
 C         -7.604358    2.892382    0.440581
 H         -8.254964    2.898018   -0.441052
 H         -8.235483    2.664535    1.306068
 H         -7.212898    3.904671    0.571148
Se          0.000003    7.041806    0.000014
        85
T1: Total Energy = -4429.51510852
 C         -6.639948    0.498851    0.133957
 C         -6.459932    1.917038    0.249599
 C         -5.115833    2.259252    0.224941
 C         -4.224275    1.165101    0.095907
 C         -2.896022    1.587119    0.086202
 C         -2.760034    2.999402    0.197875
 C         -1.412444    3.304918    0.125213
 C         -0.726582    4.573074    0.091176
 C          0.726764    4.573099   -0.091086
 S         -5.079011   -0.353923    0.005353
 S         -4.289769    3.832121    0.332227
 C          6.640238    0.499046   -0.134040
 C          6.460193    1.917234   -0.249626
 C          5.116081    2.259406   -0.224959
 C          4.224551    1.165225   -0.095975
 C          2.896286    1.587204   -0.086254
 C          2.760259    2.999487   -0.197863
 C          1.412661    3.304963   -0.125187
 C          0.701337    2.047288   -0.008611
 C         -0.701087    2.047268    0.008575
 S          5.079327   -0.353777   -0.005488
 S          4.289972    3.832255   -0.332167
 C         -7.930131   -0.068877    0.132872
 C         -8.422153   -1.370535    0.034190
 C         -7.610531   -2.598729   -0.118937
 O         -6.386577   -2.689467   -0.168423
 C         -8.555617   -3.732781   -0.205873
 C         -8.254636   -5.078965   -0.361220
 C         -9.322053   -5.964973   -0.420543
 C        -10.638597   -5.498421   -0.325282
 C        -10.937663   -4.148512   -0.168499
 C         -9.870878   -3.245390   -0.107381
 C         -9.821145   -1.767167    0.051989
 C        -10.949503   -0.960493    0.195557
 C        -12.281566   -1.469860    0.197253
 N        -13.388312   -1.837683    0.204637
 C        -10.922364    0.454883    0.363573
 N        -10.964948    1.612265    0.505414
 H         -8.688229    0.697558    0.228012
 H         -7.231595   -5.431910   -0.434305
 F         -9.117174   -7.280835   -0.570109
 F        -11.632547   -6.395003   -0.389150
 H        -11.978023   -3.861916   -0.102113
 C          7.930396   -0.068724   -0.132954
 C          8.422231   -1.370447   -0.034275
 C          7.610330   -2.598449    0.118879
 O          6.386353   -2.688883    0.168391
 C          8.555157   -3.732709    0.205889
 C          8.253875   -5.078817    0.361307
 C          9.321096   -5.965058    0.420687
 C         10.637745   -5.498805    0.325412
 C         10.937111   -4.148971    0.168559
 C          9.870527   -3.245617    0.107387
 C          9.821145   -1.767392   -0.052065
 C         10.949743   -0.961059   -0.195676
 C         12.281638   -1.470868   -0.197307
 N         13.388248   -1.839100   -0.204650
 C         10.923094    0.454311   -0.363811
 N         10.966238    1.611660   -0.505753
 H          8.688555    0.697649   -0.228066
 H          7.230754   -5.431531    0.434400
 F          9.115923   -7.280867    0.570320
 F         11.631495   -6.395605    0.389335
 H         11.977536   -3.862605    0.102164
 N          1.647294    1.016066    0.043036
 N         -1.647015    1.016022   -0.043119
 N         -1.327519    5.734690    0.170025
 N          1.327671    5.734734   -0.169877
 C         -1.468007   -0.344547   -0.552511
 H         -2.346034   -0.611138   -1.144531
 H         -0.599616   -0.379299   -1.210332
 H         -1.353236   -1.071448    0.255770
 C          1.468321   -0.344537    0.552351
 H          1.353555   -1.071394   -0.255970
 H          2.346361   -0.611145    1.144344
 H          0.599939   -0.379346    1.210182
 C          7.587139    2.904659   -0.377147
 H          8.249697    2.876007    0.495345
 H          8.206456    2.702256   -1.257971
 H          7.201357    3.923754   -0.468074
 C         -7.586910    2.904419    0.377182
 H         -8.249520    2.875739   -0.495270
 H         -8.206163    2.701993    1.258047
 H         -7.201165    3.923531    0.468083
Se          0.000058    7.039063    0.000102
        85
S1: Total Energy = -4429.49880243
 C         -6.641441    0.501006    0.143232
 C         -6.467920    1.910976    0.263294
 C         -5.117569    2.259388    0.236919
 C         -4.230423    1.169299    0.102987
 C         -2.895932    1.597008    0.093984
 C         -2.764236    3.002628    0.211350
 C         -1.411436    3.309895    0.136568
 C         -0.725918    4.576738    0.098189
 C          0.725882    4.576735   -0.098167
 S         -5.078850   -0.348351    0.009266
 S         -4.295398    3.831505    0.349140
 C          6.641426    0.501020   -0.143109
 C          6.467897    1.910984   -0.263230
 C          5.117547    2.259398   -0.236783
 C          4.230411    1.169318   -0.102720
 C          2.895918    1.597021   -0.093725
 C          2.764211    3.002630   -0.211210
 C          1.411410    3.309893   -0.136440
 C          0.704656    2.056310   -0.013483
 C         -0.704672    2.056305    0.013730
 S          5.078849   -0.348315   -0.008834
 S          4.295367    3.831505   -0.349075
 C         -7.935715   -0.074430    0.140884
 C         -8.422456   -1.371112    0.037882
 C         -7.607009   -2.597217   -0.122581
 O         -6.382748   -2.683164   -0.173100
 C         -8.549236   -3.731663   -0.215333
 C         -8.244871   -5.075977   -0.378485
 C         -9.309914   -5.964947   -0.442054
 C        -10.628199   -5.502193   -0.342947
 C        -10.931713   -4.154774   -0.178254
 C         -9.867242   -3.246911   -0.112676
 C         -9.824961   -1.774361    0.055461
 C        -10.954474   -0.969054    0.207165
 C        -12.285448   -1.479799    0.207081
 N        -13.391715   -1.850403    0.213025
 C        -10.927598    0.444165    0.387061
 N        -10.968158    1.600801    0.539350
 H         -8.694733    0.690992    0.239848
 H         -7.220841   -5.425545   -0.454264
 F         -9.101667   -7.279410   -0.599265
 F        -11.618883   -6.401913   -0.411181
 H        -11.972799   -3.871432   -0.109155
 C          7.935697   -0.074424   -0.140927
 C          8.422455   -1.371101   -0.037939
 C          7.607039   -2.597204    0.122700
 O          6.382785   -2.683162    0.173367
 C          8.549288   -3.731634    0.215420
 C          8.244956   -5.075938    0.378712
 C          9.310015   -5.964895    0.442199
 C         10.628282   -5.502139    0.342873
 C         10.931763   -4.154729    0.178041
 C          9.867276   -3.246879    0.112550
 C          9.824959   -1.774342   -0.055696
 C         10.954441   -0.969036   -0.207633
 C         12.285421   -1.479763   -0.207684
 N         13.391692   -1.850352   -0.213744
 C         10.927518    0.444164   -0.387671
 N         10.968028    1.600787   -0.540070
 H          8.694703    0.690992   -0.240034
 H          7.220939   -5.425509    0.454653
 F          9.101799   -7.279349    0.599529
 F         11.618982   -6.401847    0.411031
 H         11.972837   -3.871384    0.108775
 N          1.647147    1.026590    0.041017
 N         -1.647154    1.026571   -0.040676
 N         -1.325832    5.739280    0.182471
 N          1.325786    5.739274   -0.182571
 C         -1.469539   -0.337226   -0.542713
 H         -2.349690   -0.606268   -1.130154
 H         -0.603638   -0.375529   -1.203332
 H         -1.352996   -1.059028    0.269687
 C          1.469550   -0.337164    0.543177
 H          1.352983   -1.059034   -0.269159
 H          2.349720   -0.606155    1.130614
 H          0.603670   -0.375413    1.203826
 C          7.592995    2.900680   -0.395329
 H          8.245438    2.889350    0.485116
 H          8.222926    2.686708   -1.265534
 H          7.204369    3.916547   -0.507386
 C         -7.593029    2.900683    0.395217
 H         -8.245448    2.889226   -0.485243
 H         -8.222982    2.686829    1.265435
 H         -7.204412    3.916568    0.507142
Se         -0.000025    7.042002   -0.000085
