        85
S0: Total Energy = -4040.59312221
 C         -6.792234    0.693307    0.141548
 C         -6.502401    2.073505    0.263832
 C         -5.132746    2.371663    0.237282
 C         -4.236251    1.296998    0.097777
 C         -2.903817    1.744816    0.094398
 C         -2.782817    3.136829    0.223434
 C         -1.415432    3.453886    0.156753
 C         -0.715191    4.702492    0.107696
 C          0.715178    4.702487   -0.107855
 S         -4.317368    3.947413    0.363861
 C          6.792228    0.693310   -0.141479
 C          6.502392    2.073501   -0.263835
 C          5.132737    2.371659   -0.237303
 C          4.236243    1.296999   -0.097744
 C          2.903808    1.744815   -0.094394
 C          2.782807    3.136821   -0.223505
 C          1.415422    3.453879   -0.156846
 C          0.716103    2.215938   -0.023794
 C         -0.716113    2.215938    0.023767
 S          4.317357    3.947400   -0.363967
 C         -8.119290    0.224269    0.133145
 C         -8.707562   -1.029581    0.031376
 C         -7.995125   -2.314627   -0.088695
 O         -6.780707   -2.506852   -0.129922
 C         -9.024018   -3.374990   -0.151355
 C         -8.824056   -4.744870   -0.263296
 C         -9.954174   -5.548764   -0.302365
 C        -11.234369   -4.983218   -0.230400
 C        -11.431877   -3.611779   -0.118944
 C        -10.299774   -2.789590   -0.078543
 C        -10.141417   -1.314656    0.032023
 C        -11.202112   -0.423632    0.110289
 C        -12.571540   -0.828372    0.099129
 N        -13.702969   -1.107799    0.094091
 C        -11.065789    0.993913    0.206457
 N        -11.014334    2.156110    0.285608
 H         -8.819591    1.045473    0.229141
 H         -7.829985   -5.175135   -0.318184
 F         -9.848897   -6.879139   -0.409079
 F        -12.290555   -5.806046   -0.271968
 H        -12.448011   -3.245981   -0.068469
 C          8.119286    0.224277   -0.133060
 C          8.707565   -1.029566   -0.031247
 C          7.995133   -2.314611    0.088877
 O          6.780710   -2.506859    0.129863
 C          9.024025   -3.374984    0.151377
 C          8.824064   -4.744876    0.263167
 C          9.954182   -5.548773    0.302162
 C         11.234377   -4.983218    0.230267
 C         11.431885   -3.611767    0.118946
 C         10.299780   -2.789577    0.078618
 C         10.141422   -1.314636   -0.031856
 C         11.202123   -0.423615   -0.110092
 C         12.571546   -0.828369   -0.098948
 N         13.702972   -1.107807   -0.093918
 C         11.065815    0.993933   -0.206238
 N         11.014395    2.156130   -0.285408
 H          8.819582    1.045483   -0.229073
 H          7.829994   -5.175147    0.318016
 F          9.848907   -6.879158    0.408745
 F         12.290564   -5.806048    0.271756
 H         12.448018   -3.245963    0.068500
 N          1.645011    1.182939    0.041582
 N         -1.645018    1.182933   -0.041549
 N         -1.248362    5.915683    0.188399
 N          1.248348    5.915675   -0.188620
 C         -1.457764   -0.172032   -0.560721
 H         -2.324411   -0.430886   -1.173132
 H         -0.577564   -0.202567   -1.202454
 H         -1.359425   -0.908545    0.241321
 C          1.457756   -0.172002    0.560815
 H          1.359413   -0.908552   -0.241193
 H          2.324406   -0.430831    1.173235
 H          0.577559   -0.202507    1.202554
 C          7.558294    3.140251   -0.409119
 H          8.253949    3.139419    0.436595
 H          8.152911    2.995760   -1.317714
 H          7.105290    4.133379   -0.464021
 C         -7.558303    3.140263    0.409061
 H         -8.254001    3.139344   -0.436616
 H         -8.152871    2.995857    1.317703
 H         -7.105303    4.133399    0.463842
 S         -0.000009    6.991984   -0.000147
Se          5.150353   -0.374208    0.013893
Se         -5.150357   -0.374217   -0.013755
        85
T1: Total Energy = -4040.54957781
 C         -6.783234   -0.695130   -0.131685
 C         -6.480949   -2.087854   -0.242409
 C         -5.119634   -2.372586   -0.215900
 C         -4.217428   -1.289447   -0.089085
 C         -2.897237   -1.725492   -0.082736
 C         -2.766007   -3.139313   -0.195112
 C         -1.418982   -3.449918   -0.123700
 C         -0.716183   -4.702036   -0.087682
 C          0.716157   -4.702032    0.087698
 S         -4.301232   -3.955324   -0.327078
 C          6.783146   -0.695037    0.131788
 C          6.480881   -2.087771    0.242442
 C          5.119568   -2.372519    0.216013
 C          4.217341   -1.289382    0.089340
 C          2.897157   -1.725448    0.082998
 C          2.765953   -3.139282    0.195250
 C          1.418933   -3.449903    0.123832
 C          0.701654   -2.193991    0.008312
 C         -0.701727   -2.194003   -0.008049
 S          4.301196   -3.955278    0.327109
 C         -8.111306   -0.237402   -0.125014
 C         -8.705167    1.024024   -0.032656
 C         -7.992504    2.313015    0.072301
 O         -6.777144    2.503092    0.104854
 C         -9.019149    3.374371    0.131561
 C         -8.820534    4.744574    0.231347
 C         -9.952290    5.548142    0.270290
 C        -11.229966    4.979116    0.210080
 C        -11.426107    3.604861    0.110550
 C        -10.294016    2.784425    0.070323
 C        -10.131006    1.308639   -0.029196
 C        -11.194959    0.410529   -0.097600
 C        -12.562728    0.814657   -0.086863
 N        -13.694774    1.094848   -0.081763
 C        -11.061205   -1.006442   -0.181510
 N        -11.018570   -2.170390   -0.250114
 H         -8.809659   -1.060535   -0.209870
 H         -7.826945    5.177056    0.277443
 F         -9.847327    6.880547    0.365876
 F        -12.289134    5.798860    0.251015
 H        -12.442017    3.237284    0.068870
 C          8.111227   -0.237328    0.124970
 C          8.705145    1.024073    0.032608
 C          7.992575    2.313129   -0.072187
 O          6.777228    2.503318   -0.104558
 C          9.019299    3.374405   -0.131520
 C          8.820782    4.744631   -0.231185
 C          9.952598    5.548109   -0.270244
 C         11.230236    4.978973   -0.210265
 C         11.426279    3.604695   -0.110855
 C         10.294126    2.784350   -0.070508
 C         10.131005    1.308572    0.028939
 C         11.194878    0.410352    0.097111
 C         12.562689    0.814333    0.086175
 N         13.694766    1.094395    0.080914
 C         11.060979   -1.006610    0.180941
 N         11.018187   -2.170556    0.249485
 H          8.809564   -1.060493    0.209658
 H          7.827222    5.177198   -0.277106
 F          9.847731    6.880529   -0.365725
 F         12.289465    5.798632   -0.251308
 H         12.442164    3.237032   -0.069354
 N          1.644694   -1.159350   -0.043924
 N         -1.644787   -1.159386    0.044277
 N         -1.252478   -5.911956   -0.155059
 N          1.252475   -5.911948    0.154946
 C         -1.461652    0.196870    0.562560
 H         -2.335018    0.458556    1.164092
 H         -0.588456    0.227234    1.214180
 H         -1.352605    0.930483   -0.240603
 C          1.461524    0.196951   -0.562075
 H          1.352487    0.930489    0.241157
 H          2.334872    0.458705   -1.163605
 H          0.588312    0.227362   -1.213671
 C          7.540943   -3.150415    0.375170
 H          8.228346   -3.145732   -0.477874
 H          8.145818   -3.005708    1.277353
 H          7.092606   -4.145856    0.433269
 C         -7.540985   -3.150499   -0.375333
 H         -8.228467   -3.145905    0.477647
 H         -8.145779   -3.005716   -1.277558
 H         -7.092629   -4.145928   -0.433483
 S          0.000008   -6.992491   -0.000104
Se          5.153938    0.386078   -0.007013
Se         -5.154054    0.385988    0.007391
        85
S1: Total Energy = -4040.53308645
 C         -6.784540   -0.697453   -0.131541
 C         -6.489102   -2.082655   -0.244100
 C         -5.120810   -2.372958   -0.217594
 C         -4.223273   -1.293615   -0.088345
 C         -2.896961   -1.734701   -0.084332
 C         -2.769989   -3.142221   -0.201337
 C         -1.418049   -3.454795   -0.130344
 C         -0.715895   -4.705526   -0.091842
 C          0.715876   -4.705522    0.091846
 S         -4.306412   -3.954641   -0.333984
 C          6.784530   -0.697455    0.131458
 C          6.489087   -2.082652    0.244070
 C          5.120796   -2.372957    0.217523
 C          4.223264   -1.293621    0.088181
 C          2.896952   -1.734704    0.084171
 C          2.769975   -3.142217    0.201259
 C          1.418034   -3.454791    0.130273
 C          0.704513   -2.201845    0.010887
 C         -0.704523   -2.201843   -0.011040
 S          4.306393   -3.954633    0.333977
 C         -8.116991   -0.233025   -0.123026
 C         -8.705771    1.024374   -0.030067
 C         -7.989539    2.312612    0.072406
 O         -6.773563    2.499036    0.105207
 C         -9.013604    3.375296    0.128388
 C         -8.811747    4.745088    0.224126
 C         -9.941602    5.552039    0.259953
 C        -11.221053    4.985731    0.200553
 C        -11.421380    3.612143    0.105369
 C        -10.291144    2.786877    0.068281
 C        -10.135201    1.314245   -0.025495
 C        -11.200662    0.415987   -0.087477
 C        -12.567534    0.821400   -0.077455
 N        -13.699414    1.103933   -0.072732
 C        -11.067589   -1.000922   -0.161605
 N        -11.023458   -2.165758   -0.221658
 H         -8.816245   -1.055751   -0.207905
 H         -7.817017    5.175059    0.269542
 F         -9.833290    6.884477    0.351503
 F        -12.277577    5.808926    0.238135
 H        -12.438172    3.246954    0.064163
 C          8.116982   -0.233027    0.123021
 C          8.705772    1.024367    0.030057
 C          7.989554    2.312601   -0.072557
 O          6.773582    2.499027   -0.105498
 C          9.013627    3.375282   -0.128455
 C          8.811783    4.745071   -0.224266
 C          9.941643    5.552020   -0.259981
 C         11.221086    4.985713   -0.200396
 C         11.421401    3.612128   -0.105142
 C         10.291159    2.786864   -0.068171
 C         10.135203    1.314235    0.025641
 C         11.200654    0.415979    0.087782
 C         12.567528    0.821388    0.077918
 N         13.699410    1.103919    0.073323
 C         11.067570   -1.000928    0.161939
 N         11.023429   -2.165761    0.222064
 H          8.816228   -1.055750    0.208002
 H          7.817059    5.175041   -0.269822
 F          9.833344    6.884454   -0.351590
 F         12.277615    5.808906   -0.237871
 H         12.438187    3.246940   -0.063792
 N          1.644697   -1.168541   -0.045189
 N         -1.644703   -1.168532    0.044977
 N         -1.251602   -5.916391   -0.162075
 N          1.251579   -5.916385    0.162157
 C         -1.461929    0.190400    0.556986
 H         -2.335741    0.453998    1.156795
 H         -0.589305    0.223711    1.208979
 H         -1.353281    0.919927   -0.249801
 C          1.461931    0.190362   -0.557280
 H          1.353275    0.919936    0.249462
 H          2.335751    0.453922   -1.157095
 H          0.589315    0.223636   -1.209286
 C          7.546543   -3.148048    0.380802
 H          8.241799   -3.140650   -0.465534
 H          8.142728   -3.009016    1.289563
 H          7.095996   -4.142938    0.429687
 C         -7.546563   -3.148059   -0.380726
 H         -8.241799   -3.140598    0.465626
 H         -8.142768   -3.009093   -1.289483
 H         -7.096018   -4.142954   -0.429547
 S         -0.000013   -6.995748    0.000076
Se          5.153007    0.380983   -0.010814
Se         -5.153010    0.380995    0.010582
