        82
S0: Total Energy = -5400.49084368
 C          6.710748   -0.661457    0.154210
 C          6.569413   -2.070227    0.290216
 C          5.226808   -2.451908    0.266780
 C          4.318025   -1.384684    0.119570
 C          2.986339   -1.845370    0.115085
 C          2.886956   -3.236858    0.248865
 C          1.524308   -3.573842    0.180120
 C          0.841445   -4.832068    0.131656
 C         -0.588315   -4.852546   -0.089988
 S          5.121890    0.146747    0.011744
 S          4.434283   -4.034434    0.397079
 C         -6.573924   -0.849375   -0.141945
 C         -6.392405   -2.252818   -0.269254
 C         -5.038621   -2.596665   -0.240246
 C         -4.161154   -1.504277   -0.097389
 C         -2.816309   -1.927325   -0.088990
 C         -2.677861   -3.315827   -0.216103
 C         -1.306077   -3.614134   -0.144707
 C         -0.624510   -2.367290   -0.010700
 C          0.807821   -2.347005    0.040540
 S         -5.009495    0.004056    0.002570
 S         -4.202275   -4.156890   -0.361507
 C          7.984551   -0.057988    0.135865
 C          8.450079    1.244970    0.020106
 C          7.606974    2.461246   -0.113773
 O          6.381740    2.515441   -0.149286
 C          8.543714    3.598075   -0.193318
 C          8.470849    4.953067   -0.318800
 C         10.829285    4.102028   -0.181010
 C          9.887710    3.108505   -0.114532
 C          9.858221    1.641813    0.016327
 C         11.004314    0.863326    0.107277
 C         12.302156    1.454522    0.084012
 N         13.366782    1.929077    0.066236
 C         11.022014   -0.556102    0.226123
 N         11.079299   -1.716973    0.323691
 H          8.762833   -0.805325    0.236261
 H         11.907216    4.042836   -0.148032
 C         -7.866020   -0.281015   -0.140158
 C         -8.363910    1.008558   -0.034177
 C         -7.563170    2.239179    0.127843
 O         -6.341013    2.341635    0.185076
 C         -8.519073    3.365193    0.212940
 C         -8.227179    4.713493    0.373217
 C         -9.299561    5.591236    0.428953
 C        -10.614482    5.118182    0.326038
 C        -10.904320    3.768920    0.164912
 C         -9.830787    2.872316    0.106926
 C         -9.774165    1.395081   -0.055763
 C        -10.891741    0.586673   -0.202801
 C        -12.229427    1.086391   -0.210351
 N        -13.338613    1.443902   -0.222983
 C        -10.852108   -0.830435   -0.368091
 N        -10.878854   -1.987896   -0.506549
 H         -8.619544   -1.051689   -0.245597
 H         -7.206591    5.072146    0.452375
 F         -9.105061    6.907089    0.582221
 F        -11.611941    6.010475    0.387191
 H        -11.942574    3.476142    0.092551
 N         -1.567732   -1.347432    0.050991
 N          1.721612   -1.301562   -0.026811
 N          1.391727   -6.036720    0.217858
 N         -1.104803   -6.072528   -0.169937
 C          1.516440    0.050484   -0.548424
 H          2.380518    0.321165   -1.158720
 H          0.636954    0.066528   -1.191466
 H          1.406511    0.785891    0.252768
 C         -1.401647    0.012004    0.567118
 H         -1.312683    0.747134   -0.236960
 H         -2.273403    0.259919    1.176202
 H         -0.523208    0.056406    1.210255
 C         -7.506495   -3.253804   -0.412751
 H         -8.171721   -3.244793    0.457588
 H         -8.124378   -3.049269   -1.293553
 H         -7.106421   -4.265933   -0.514364
 C          7.712669   -3.036521    0.440524
 H          8.401202   -2.985774   -0.409663
 H          8.298326   -2.829995    1.342993
 H          7.345268   -4.063649    0.510287
 S          0.158475   -7.132287    0.026738
 S         10.073284    5.660428   -0.341951
Cl          7.066992    5.939306   -0.445759
        82
T1: Total Energy = -5400.44616635
 C          6.699595   -0.664617    0.146712
 C          6.546792   -2.087141    0.263508
 C          5.210345   -2.454758    0.233602
 C          4.297385   -1.379780    0.100641
 C          2.977833   -1.826951    0.088019
 C          2.867705   -3.241897    0.199078
 C          1.525537   -3.570923    0.120110
 C          0.839590   -4.832266    0.078913
 C         -0.591995   -4.851277   -0.103568
 S          5.122580    0.157889    0.016568
 S          4.414898   -4.044639    0.339641
 C         -6.563811   -0.847946   -0.145178
 C         -6.372793   -2.263219   -0.265517
 C         -5.025677   -2.594625   -0.241746
 C         -4.143269   -1.495127   -0.108517
 C         -2.810698   -1.906312   -0.099990
 C         -2.662932   -3.315846   -0.215490
 C         -1.311345   -3.609018   -0.140616
 C         -0.611896   -2.344670   -0.018968
 C          0.791807   -2.325665    0.001601
 S         -5.008918    0.017768   -0.019675
 S         -4.187270   -4.160679   -0.355331
 C          7.977585   -0.072644    0.137237
 C          8.447662    1.239317    0.038327
 C          7.605809    2.461289   -0.071625
 O          6.379638    2.516249   -0.098642
 C          8.541537    3.597971   -0.139152
 C          8.469868    4.954247   -0.244027
 C         10.827240    4.095328   -0.131959
 C          9.884941    3.103663   -0.075193
 C          9.847691    1.635372    0.032568
 C         10.997062    0.846664    0.104925
 C         12.294576    1.434450    0.086845
 N         13.361886    1.905154    0.073446
 C         11.016751   -0.573085    0.196303
 N         11.084904   -1.735896    0.270633
 H          8.753209   -0.822888    0.225272
 H         11.905129    4.033783   -0.106040
 C         -7.858893   -0.291651   -0.125217
 C         -8.360525    1.004761   -0.022234
 C         -7.557092    2.244517    0.065328
 O         -6.333566    2.347105    0.081149
 C         -8.510253    3.373032    0.127716
 C         -8.217894    4.727255    0.213464
 C         -9.291383    5.605923    0.259061
 C        -10.605484    5.125072    0.219323
 C        -10.896055    3.767430    0.134457
 C         -9.822893    2.871192    0.087438
 C         -9.764124    1.387280    0.001862
 C        -10.887446    0.563488   -0.033012
 C        -12.224557    1.059389   -0.011079
 N        -13.335057    1.415210    0.003287
 C        -10.851442   -0.860821   -0.085216
 N        -10.887163   -2.026345   -0.124694
 H         -8.611320   -1.065012   -0.208759
 H         -7.196636    5.091470    0.243999
 F         -9.095418    6.928962    0.341631
 F        -11.605327    6.016172    0.265652
 H        -11.935117    3.469706    0.108168
 N         -1.568359   -1.323094    0.033455
 N          1.720673   -1.277871   -0.046070
 N          1.392468   -6.034133    0.147356
 N         -1.112340   -6.067597   -0.175235
 C          1.521517    0.077982   -0.561489
 H          2.393940    0.353798   -1.157405
 H          0.650867    0.097084   -1.216726
 H          1.399205    0.806770    0.243761
 C         -1.405726    0.036110    0.552772
 H         -1.304144    0.770490   -0.250295
 H         -2.284763    0.285882    1.150471
 H         -0.535276    0.077408    1.207197
 C         -7.490194   -3.259832   -0.403000
 H         -8.193086   -3.201698    0.435032
 H         -8.067257   -3.093026   -1.319712
 H         -7.098134   -4.279873   -0.438000
 C          7.692996   -3.049918    0.402090
 H          8.383029   -2.984787   -0.446410
 H          8.277759   -2.852846    1.307772
 H          7.330646   -4.080054    0.457925
 S          0.154735   -7.132570   -0.015367
 S         10.072974    5.662442   -0.265745
Cl          7.065076    5.943469   -0.349011
        82
S1: Total Energy = -5400.43001031
 C          6.701409   -0.665385    0.143727
 C          6.555609   -2.077905    0.275145
 C          5.212546   -2.452536    0.249378
 C          4.304264   -1.382760    0.104624
 C          2.977759   -1.835885    0.099351
 C          2.872243   -3.242473    0.228941
 C          1.524864   -3.574423    0.155114
 C          0.839848   -4.834909    0.125428
 C         -0.591429   -4.856409   -0.062813
 S          5.121834    0.152332    0.003708
 S          4.421008   -4.040178    0.376438
 C         -6.564925   -0.852558   -0.131330
 C         -6.380054   -2.262155   -0.239056
 C         -5.027456   -2.598749   -0.214092
 C         -4.148284   -1.501230   -0.092492
 C         -2.810610   -1.916975   -0.083770
 C         -2.666588   -3.322568   -0.189004
 C         -1.310698   -3.616076   -0.114210
 C         -0.614264   -2.352826   -0.003900
 C          0.794591   -2.333390    0.020930
 S         -5.008698    0.011205   -0.008044
 S         -4.192787   -4.165690   -0.316336
 C          7.982692   -0.065050    0.127590
 C          8.446993    1.241224    0.017365
 C          7.602234    2.460858   -0.103901
 O          6.375922    2.512111   -0.135188
 C          8.535616    3.597993   -0.176152
 C          8.460091    4.953611   -0.289333
 C         10.820770    4.103547   -0.166258
 C          9.881158    3.107871   -0.105894
 C          9.851198    1.643089    0.009978
 C         11.000777    0.856860    0.086361
 C         12.297698    1.445989    0.065338
 N         13.364458    1.918275    0.049622
 C         11.021107   -0.562413    0.183590
 N         11.087375   -1.725248    0.262708
 H          8.759481   -0.813656    0.222907
 H         11.898749    4.045400   -0.137027
 C         -7.863443   -0.287945   -0.134080
 C         -8.360499    1.005380   -0.041246
 C         -7.555234    2.238518    0.115743
 O         -6.332114    2.334305    0.167581
 C         -8.506427    3.365555    0.203529
 C         -8.212950    4.712511    0.363541
 C         -9.284944    5.592752    0.422894
 C        -10.599091    5.119469    0.322900
 C        -10.891722    3.769632    0.161210
 C         -9.820108    2.870337    0.099862
 C         -9.765906    1.397522   -0.064625
 C        -10.888121    0.583645   -0.219823
 C        -12.223319    1.083268   -0.225174
 N        -13.332774    1.444012   -0.235567
 C        -10.849881   -0.829344   -0.399687
 N        -10.881457   -1.986183   -0.552276
 H         -8.616154   -1.060218   -0.227723
 H         -7.191814    5.070338    0.440067
 F         -9.087699    6.909344    0.576942
 F        -11.596853    6.011749    0.387348
 H        -11.930467    3.477923    0.091244
 N         -1.568456   -1.332198    0.042706
 N          1.721004   -1.287750   -0.041465
 N          1.392586   -6.036789    0.208383
 N         -1.110899   -6.074411   -0.123808
 C          1.522394    0.065712   -0.563894
 H          2.395257    0.337433   -1.160764
 H          0.652291    0.081489   -1.219667
 H          1.400627    0.798485    0.237674
 C         -1.406063    0.036476    0.537095
 H         -1.303098    0.755420   -0.279505
 H         -2.286455    0.296851    1.127989
 H         -0.537349    0.089371    1.192828
 C         -7.497148   -3.261991   -0.358706
 H         -8.154321   -3.238911    0.517803
 H         -8.123638   -3.068474   -1.236119
 H         -7.101077   -4.276972   -0.449679
 C          7.699832   -3.042265    0.425096
 H          8.395100   -2.982874   -0.419305
 H          8.279078   -2.842109    1.333524
 H          7.335408   -4.071464    0.483703
 S          0.155827   -7.136097    0.051991
 S         10.061563    5.666993   -0.311135
Cl          7.052759    5.937895   -0.403854
