        85
S0: Total Energy = -6260.06066548
 C         -6.641517    1.202068    0.197679
 C         -6.478254    2.608546    0.331110
 C         -5.130503    2.970851    0.293865
 C         -4.238550    1.890656    0.140054
 C         -2.900398    2.332240    0.123657
 C         -2.780498    3.722548    0.254620
 C         -1.413951    4.040434    0.173889
 C         -0.713939    5.288968    0.116909
 C          0.713925    5.288968   -0.116859
 S         -5.065814    0.371075    0.039487
 S         -4.314932    4.542167    0.414359
 C          6.641501    1.202063   -0.197711
 C          6.478237    2.608541   -0.331140
 C          5.130487    2.970847   -0.293864
 C          4.238535    1.890654   -0.140046
 C          2.900384    2.332240   -0.123634
 C          2.780484    3.722548   -0.254588
 C          1.413937    4.040434   -0.173845
 C          0.715965    2.803526   -0.030858
 C         -0.715978    2.803525    0.030900
 S          5.065799    0.371072   -0.039493
 S          4.314918    4.542166   -0.414330
 C         -7.924326    0.617221    0.197601
 C         -8.405726   -0.680063    0.085223
 C         -7.587237   -1.896690   -0.082974
 O         -6.364097   -1.983165   -0.142037
 C         -8.529133   -3.036341   -0.171178
 C         -8.225893   -4.376156   -0.337101
 C         -9.279967   -5.290415   -0.398971
 C        -10.607367   -4.835587   -0.292759
 C        -10.899347   -3.476451   -0.124098
 C         -9.846308   -2.563003   -0.061792
 C         -9.810209   -1.084107    0.107370
 C        -10.938882   -0.292142    0.258991
 C        -12.269697   -0.809743    0.268616
 N        -13.374356   -1.180848    0.283587
 C        -10.917924    1.124979    0.427716
 N        -10.959217    2.281669    0.568828
 H         -8.688209    1.376583    0.309889
 H         -7.196186   -4.706882   -0.417406
 H        -11.936475   -3.182437   -0.048281
 C          7.924311    0.617216   -0.197638
 C          8.405719   -0.680064   -0.085244
 C          7.587243   -1.896695    0.082993
 O          6.364105   -1.983183    0.142074
 C          8.529152   -3.036337    0.171196
 C          8.225926   -4.376151    0.337148
 C          9.280010   -5.290400    0.399011
 C         10.607403   -4.835563    0.292763
 C         10.899369   -3.476427    0.124072
 C          9.846320   -2.562990    0.061775
 C          9.810204   -1.084097   -0.107411
 C         10.938864   -0.292123   -0.259084
 C         12.269685   -0.809709   -0.268743
 N         13.374347   -1.180802   -0.283742
 C         10.917882    1.124992   -0.427856
 N         10.959148    2.281682   -0.568966
 H          8.688192    1.376577   -0.309940
 H          7.196224   -4.706885    0.417481
 H         11.936492   -3.182406    0.048229
 N          1.644648    1.770596    0.027486
 N         -1.644662    1.770597   -0.027453
 N         -1.246641    6.501355    0.204525
 N          1.246627    6.501356   -0.204474
 C         -1.462064    0.416049   -0.551157
 H         -2.333386    0.158374   -1.156762
 H         -0.586667    0.387765   -1.199347
 H         -1.357975   -0.321410    0.248916
 C          1.462057    0.416058    0.551220
 H          1.357968   -0.321418   -0.248837
 H          2.333381    0.158398    1.156829
 H          0.586662    0.387785    1.199414
 C          7.605304    3.592882   -0.485788
 H          8.261483    3.594668    0.391602
 H          8.229439    3.362053   -1.355435
 H          7.218354    4.607130   -0.613489
 C         -7.605327    3.592878    0.485785
 H         -8.261802    3.594340   -0.391381
 H         -8.229157    3.362290    1.355718
 H         -7.218397    4.607190    0.613026
 S         -0.000006    7.579097    0.000029
Cl         11.943496   -5.953530    0.367739
Cl          8.913917   -6.980958    0.608456
Cl         -8.913856   -6.980973   -0.608380
Cl        -11.943449   -5.953567   -0.367745
        85
T1: Total Energy = -6260.01615733
 C         -6.630163    1.204098    0.178777
 C         -6.458177    2.623099    0.298075
 C         -5.116589    2.973219    0.264194
 C         -4.219305    1.886162    0.125184
 C         -2.893291    2.315785    0.107882
 C         -2.764371    3.728321    0.222230
 C         -1.417982    4.040034    0.138350
 C         -0.715270    5.291970    0.095773
 C          0.715267    5.291983   -0.095128
 S         -5.064629    0.361102    0.037208
 S         -4.299740    4.551533    0.370879
 C          6.630128    1.204092   -0.178844
 C          6.458153    2.623114   -0.297880
 C          5.116565    2.973231   -0.263994
 C          4.219271    1.886150   -0.125233
 C          2.893260    2.315780   -0.107861
 C          2.764353    3.728341   -0.221916
 C          1.417967    4.040050   -0.137972
 C          0.701782    2.785351   -0.013444
 C         -0.701809    2.785355    0.013550
 S          5.064588    0.361071   -0.037508
 S          4.299729    4.551573   -0.370376
 C         -7.916477    0.629018    0.181864
 C         -8.400752   -0.676202    0.081561
 C         -7.579881   -1.897357   -0.070942
 O         -6.356093   -1.980536   -0.122627
 C         -8.518462   -3.038844   -0.153414
 C         -8.214925   -4.379180   -0.305390
 C         -9.270141   -5.294548   -0.363678
 C        -10.595450   -4.836744   -0.267448
 C        -10.888230   -3.474483   -0.112546
 C         -9.835703   -2.561134   -0.054235
 C         -9.796749   -1.081424    0.100796
 C        -10.930769   -0.281824    0.240342
 C        -12.259617   -0.798971    0.246549
 N        -13.364853   -1.171261    0.257971
 C        -10.913386    1.134723    0.398034
 N        -10.964207    2.292878    0.530760
 H         -8.678887    1.390370    0.282314
 H         -7.185204   -4.711709   -0.377908
 H        -11.925593   -3.179521   -0.044071
 C          7.916441    0.629010   -0.182058
 C          8.400726   -0.676215   -0.081893
 C          7.579888   -1.897360    0.070865
 O          6.356105   -1.980547    0.122675
 C          8.518498   -3.038814    0.153465
 C          8.215004   -4.379122    0.305768
 C          9.270244   -5.294456    0.364166
 C         10.595535   -4.836645    0.267716
 C         10.888271   -3.474415    0.112466
 C          9.835720   -2.561101    0.054042
 C          9.796721   -1.081432   -0.101360
 C         10.930693   -0.281864   -0.241480
 C         12.259549   -0.798991   -0.247815
 N         13.364788   -1.171268   -0.259355
 C         10.913237    1.134614   -0.399789
 N         10.963983    2.292709   -0.533076
 H          8.678846    1.390374   -0.282447
 H          7.185295   -4.711656    0.378458
 H         11.925623   -3.179445    0.043834
 N          1.644071    1.750181    0.032861
 N         -1.644109    1.750205   -0.032976
 N         -1.251419    6.501147    0.169115
 N          1.251428    6.501171   -0.168217
 C         -1.464724    0.394057   -0.555231
 H         -2.341143    0.133804   -1.152265
 H         -0.594776    0.365700   -1.210987
 H         -1.352344   -0.340226    0.246438
 C          1.464669    0.393916    0.554805
 H          1.352278   -0.340181   -0.247034
 H          2.341085    0.133515    1.151777
 H          0.594721    0.365418    1.210555
 C          7.589934    3.602653   -0.438341
 H          8.262634    3.569595    0.426011
 H          8.196991    3.395596   -1.326548
 H          7.210447    4.624342   -0.525177
 C         -7.589943    3.602614    0.438841
 H         -8.262889    3.569561   -0.425316
 H         -8.196741    3.395526    1.327220
 H         -7.210453    4.624309    0.525592
 S          0.000012    7.582870    0.000581
Cl         11.933859   -5.953340    0.338092
Cl          8.903137   -6.988027    0.557075
Cl         -8.902980   -6.988156   -0.556166
Cl        -11.933743   -5.953486   -0.337670
        85
S1: Total Energy = -6260.00028639
 C         -6.631711    1.205809    0.186615
 C         -6.465759    2.616489    0.308079
 C         -5.117861    2.972340    0.272417
 C         -4.225321    1.888742    0.130574
 C         -2.892972    2.323468    0.113774
 C         -2.767942    3.729727    0.232103
 C         -1.416897    4.043191    0.146757
 C         -0.714860    5.293781    0.100667
 C          0.714758    5.293779   -0.100483
 S         -5.064862    0.365343    0.041154
 S         -4.304462    4.549795    0.382270
 C          6.631580    1.205762   -0.186604
 C          6.465631    2.616443   -0.308043
 C          5.117739    2.972306   -0.272341
 C          4.225193    1.888713   -0.130506
 C          2.892847    2.323449   -0.113684
 C          2.767827    3.729712   -0.231978
 C          1.416786    4.043184   -0.146610
 C          0.704334    2.791336   -0.017592
 C         -0.704455    2.791341    0.017703
 S          5.064724    0.365302   -0.041155
 S          4.304352    4.549772   -0.382142
 C         -7.922365    0.623490    0.189562
 C         -8.401981   -0.676204    0.086853
 C         -7.578769   -1.895813   -0.073878
 O         -6.354801   -1.975555   -0.127455
 C         -8.515879   -3.036590   -0.162194
 C         -8.210283   -4.375245   -0.323234
 C         -9.263863   -5.292673   -0.386153
 C        -10.590642   -4.837365   -0.285041
 C        -10.886541   -3.477793   -0.120755
 C         -9.835254   -2.560414   -0.057648
 C         -9.802643   -1.087141    0.107693
 C        -10.936226   -0.288253    0.258797
 C        -12.264677   -0.805413    0.264124
 N        -13.369753   -1.179320    0.274811
 C        -10.917242    1.125902    0.432031
 N        -10.964310    2.283026    0.578452
 H         -8.685231    1.384432    0.292787
 H         -7.179966   -4.705183   -0.399207
 H        -11.924318   -3.185117   -0.048678
 C          7.922241    0.623457   -0.189609
 C          8.401924   -0.676216   -0.086927
 C          7.578816   -1.895882    0.073912
 O          6.354858   -1.975724    0.127560
 C          8.516021   -3.036580    0.162240
 C          8.210538   -4.375249    0.323382
 C          9.264193   -5.292592    0.386296
 C         10.590930   -4.837187    0.285073
 C         10.886714   -3.477604    0.120678
 C          9.835353   -2.560309    0.057579
 C          9.802611   -1.087051   -0.107868
 C         10.936098   -0.288067   -0.259178
 C         12.264608   -0.805076   -0.264559
 N         13.369730   -1.178845   -0.275292
 C         10.916929    1.126061   -0.432612
 N         10.963790    2.283169   -0.579226
 H          8.685083    1.384421   -0.292870
 H          7.180251   -4.705261    0.399437
 H         11.924464   -3.184853    0.048520
 N          1.644236    1.757616    0.030754
 N         -1.644365    1.757630   -0.030679
 N         -1.250250    6.503898    0.177475
 N          1.250156    6.503894   -0.177259
 C         -1.466184    0.398621   -0.546525
 H         -2.345326    0.135307   -1.137895
 H         -0.599548    0.367694   -1.206362
 H         -1.350178   -0.331040    0.258681
 C          1.466045    0.398582    0.546532
 H          1.350001   -0.331035   -0.258709
 H          2.345202    0.135220    1.137856
 H          0.599429    0.367634    1.206396
 C          7.595122    3.599145   -0.450583
 H          8.254869    3.585045    0.424209
 H          8.216090    3.380134   -1.325871
 H          7.211916    4.617129   -0.560916
 C         -7.595244    3.599198    0.450618
 H         -8.255107    3.584968   -0.424082
 H         -8.216094    3.380299    1.326018
 H         -7.212037    4.617202    0.560760
 S         -0.000044    7.584338    0.000119
Cl         11.926381   -5.956922    0.361060
Cl          8.894440   -6.983870    0.590355
Cl         -8.893967   -6.983936   -0.590075
Cl        -11.926002   -5.957208   -0.361034
