        85
S0: Total Energy = -10262.4557650
 C         -6.754166    1.130991    0.172307
 C         -6.491404    2.521512    0.295334
 C         -5.129682    2.832495    0.269186
 C         -4.231352    1.754472    0.129936
 C         -2.901607    2.209158    0.121775
 C         -2.780782    3.599940    0.245388
 C         -1.414568    3.917046    0.167782
 C         -0.714471    5.165595    0.112906
 C          0.714473    5.165595   -0.112876
 S         -4.317303    4.411565    0.391526
 C          6.754176    1.130997   -0.172317
 C          6.491410    2.521516   -0.295362
 C          5.129689    2.832499   -0.269174
 C          4.231364    1.754477   -0.129880
 C          2.901618    2.209163   -0.121688
 C          2.780789    3.599942   -0.245327
 C          1.414573    3.917046   -0.167720
 C          0.715848    2.678714   -0.029679
 C         -0.715838    2.678711    0.029782
 S          4.317307    4.411568   -0.391491
 C         -8.071243    0.640900    0.165466
 C         -8.617635   -0.633826    0.064257
 C         -7.848174   -1.879153   -0.056074
 O         -6.623768   -2.006159   -0.096361
 C         -8.825591   -2.987848   -0.119368
 C         -8.571700   -4.343219   -0.231833
 C         -9.659534   -5.218983   -0.272619
 C        -10.969410   -4.711614   -0.198698
 C        -11.211780   -3.336464   -0.085752
 C        -10.126172   -2.461960   -0.045903
 C        -10.035602   -0.979316    0.064638
 C        -11.132631   -0.134624    0.142150
 C        -12.484057   -0.595159    0.132430
 N        -13.602991   -0.921016    0.128763
 C        -11.050467    1.287335    0.236039
 N        -11.038231    2.450668    0.312980
 H         -8.792030    1.443823    0.260953
 H         -7.555043   -4.716671   -0.286688
 H        -12.237706   -3.000681   -0.033011
 C          8.071252    0.640904   -0.165509
 C          8.617639   -0.633825   -0.064316
 C          7.848171   -1.879146    0.056020
 O          6.623764   -2.006140    0.096348
 C          8.825581   -2.987846    0.119339
 C          8.571683   -4.343212    0.231848
 C          9.659512   -5.218982    0.272640
 C         10.969390   -4.711623    0.198681
 C         11.211768   -3.336478    0.085692
 C         10.126165   -2.461968    0.045838
 C         10.035603   -0.979325   -0.064727
 C         11.132636   -0.134642   -0.142291
 C         12.484059   -0.595186   -0.132607
 N         13.602989   -0.921056   -0.128970
 C         11.050478    1.287314   -0.236226
 N         11.038240    2.450648   -0.313149
 H          8.792040    1.443825   -0.261010
 H          7.555024   -4.716655    0.286729
 H         12.237695   -3.000704    0.032927
 N          1.645052    1.646538    0.025022
 N         -1.645037    1.646527   -0.024872
 N         -1.247823    6.377888    0.197571
 N          1.247820    6.377887   -0.197578
 C         -1.468249    0.287460   -0.537333
 H         -2.347810    0.024065   -1.129453
 H         -0.601185    0.251357   -1.196326
 H         -1.355120   -0.442407    0.268721
 C          1.468278    0.287495    0.537554
 H          1.355126   -0.442407   -0.268464
 H          2.347853    0.024126    1.129665
 H          0.601232    0.251423    1.196572
 C          7.563887    3.568872   -0.442094
 H          8.275149    3.542004    0.390087
 H          8.138814    3.427722   -1.364118
 H          7.129267    4.571193   -0.473280
 C         -7.563884    3.568871    0.442023
 H         -8.275196    3.541920   -0.390112
 H         -8.138754    3.427801    1.364096
 H         -7.129272    4.571200    0.473091
 S         -0.000005    7.455744   -0.000023
Cl         12.345888   -5.780927    0.244966
Cl          9.354789   -6.928629    0.415143
Cl         -9.354820   -6.928636   -0.415071
Cl        -12.345914   -5.780910   -0.244974
Se         -5.126603    0.118464    0.022873
Se          5.126620    0.118473   -0.022807
        85
T1: Total Energy = -10262.4124923
 C         -6.743089    1.133393    0.162204
 C         -6.470660    2.535105    0.274254
 C         -5.115665    2.835502    0.248171
 C         -4.212652    1.751623    0.120896
 C         -2.894344    2.194908    0.109684
 C         -2.764503    3.607741    0.217932
 C         -1.418281    3.919017    0.135702
 C         -0.715542    5.170870    0.093329
 C          0.715542    5.170868   -0.093381
 S         -4.301698    4.422133    0.356360
 C          6.743102    1.133405   -0.162157
 C          6.470668    2.535112   -0.274256
 C          5.115673    2.835508   -0.248146
 C          4.212665    1.751632   -0.120805
 C          2.894356    2.194914   -0.109589
 C          2.764509    3.607740   -0.217910
 C          1.418286    3.919016   -0.135685
 C          0.701639    2.663479   -0.013818
 C         -0.701627    2.663478    0.013904
 S          4.301699    4.422130   -0.356409
 C         -8.063900    0.653013    0.156553
 C         -8.612852   -0.628414    0.063665
 C         -7.839995   -1.876096   -0.044275
 O         -6.614455   -1.996933   -0.077307
 C         -8.812046   -2.987853   -0.105374
 C         -8.555814   -4.342552   -0.208599
 C         -9.643336   -5.220857   -0.249837
 C        -10.951965   -4.713123   -0.185601
 C        -11.197063   -3.336183   -0.081764
 C        -10.113386   -2.460186   -0.041283
 C        -10.022506   -0.977780    0.060784
 C        -11.125099   -0.128097    0.131334
 C        -12.473819   -0.590602    0.123139
 N        -13.592648   -0.919855    0.120430
 C        -11.047635    1.292938    0.215091
 N        -11.045522    2.457700    0.283215
 H         -8.782933    1.457608    0.241832
 H         -7.538634   -4.715615   -0.256315
 H        -12.223671   -3.001416   -0.036477
 C          8.063912    0.653021   -0.156559
 C          8.612859   -0.628407   -0.063665
 C          7.839992   -1.876079    0.044327
 O          6.614451   -1.996905    0.077365
 C          8.812034   -2.987846    0.105381
 C          8.555791   -4.342544    0.208610
 C          9.643305   -5.220859    0.249810
 C         10.951938   -4.713139    0.185536
 C         11.197047   -3.336201    0.081691
 C         10.113377   -2.460194    0.041241
 C         10.022510   -0.977788   -0.060828
 C         11.125111   -0.128118   -0.131418
 C         12.473825   -0.590643   -0.123267
 N         13.592649   -0.919913   -0.120594
 C         11.047666    1.292918   -0.215166
 N         11.045572    2.457680   -0.283290
 H          8.782945    1.457611   -0.241888
 H          7.538608   -4.715597    0.256360
 H         12.223656   -3.001445    0.036372
 N          1.644571    1.628939    0.028769
 N         -1.644556    1.628932   -0.028642
 N         -1.252002    6.380049    0.164966
 N          1.251997    6.380045   -0.165079
 C         -1.471048    0.268918   -0.540982
 H         -2.355283    0.004086   -1.125431
 H         -0.608965    0.233168   -1.206766
 H         -1.350375   -0.458808    0.265752
 C          1.471071    0.268945    0.541164
 H          1.350410   -0.458818   -0.265539
 H          2.355304    0.004145    1.125630
 H          0.608982    0.233216    1.206944
 C          7.548385    3.577376   -0.407746
 H          8.241671    3.555300    0.440320
 H          8.144323    3.426872   -1.315098
 H          7.118412    4.581314   -0.457147
 C         -7.548383    3.577373    0.407653
 H         -8.241639    3.555252   -0.440437
 H         -8.144355    3.426915    1.314991
 H         -7.118415    4.581315    0.457017
 S         -0.000004    7.461767   -0.000082
Cl         12.328781   -5.782836    0.232691
Cl          9.335113   -6.931891    0.380891
Cl         -9.335157   -6.931891   -0.380912
Cl        -12.328818   -5.782807   -0.232795
Se         -5.129278    0.109238    0.027539
Se          5.129298    0.109256   -0.027376
        85
S1: Total Energy = -10262.3965461
 C         -6.744459    1.135773    0.162866
 C         -6.478764    2.529926    0.277117
 C         -5.117266    2.835641    0.251106
 C         -4.218581    1.755296    0.121398
 C         -2.894150    2.203849    0.112017
 C         -2.768487    3.610156    0.224867
 C         -1.417328    3.923410    0.142818
 C         -0.715225    5.173904    0.097893
 C          0.715214    5.173903   -0.097877
 S         -4.306989    4.421221    0.364339
 C          6.744446    1.135768   -0.162851
 C          6.478751    2.529920   -0.277112
 C          5.117254    2.835637   -0.251086
 C          4.218569    1.755294   -0.121365
 C          2.894138    2.203847   -0.111983
 C          2.768476    3.610153   -0.224842
 C          1.417317    3.923409   -0.142793
 C          0.704409    2.670979   -0.017178
 C         -0.704420    2.670980    0.017211
 S          4.306978    4.421216   -0.364328
 C         -8.069376    0.648348    0.154382
 C         -8.612941   -0.628371    0.059952
 C         -7.836828   -1.875713   -0.042830
 O         -6.610921   -1.993117   -0.074159
 C         -8.806791   -2.987893   -0.099809
 C         -8.547602   -4.342394   -0.196510
 C         -9.633019   -5.223809   -0.234828
 C        -10.943655   -4.718081   -0.174238
 C        -11.192864   -3.342337   -0.077535
 C        -10.110720   -2.461168   -0.039864
 C        -10.027312   -0.983266    0.053279
 C        -11.130355   -0.132357    0.111584
 C        -12.478583   -0.595078    0.103379
 N        -13.597298   -0.925990    0.100427
 C        -11.052583    1.288959    0.178576
 N        -11.048165    2.454939    0.231709
 H         -8.789435    1.452407    0.239533
 H         -7.529431   -4.713115   -0.241525
 H        -12.220265   -3.009607   -0.035010
 C          8.069364    0.648345   -0.154382
 C          8.612937   -0.628371   -0.059953
 C          7.836835   -1.875716    0.042866
 O          6.610929   -1.993129    0.074230
 C          8.806807   -2.987889    0.099831
 C          8.547629   -4.342391    0.196561
 C          9.633053   -5.223799    0.234855
 C         10.943684   -4.718064    0.174212
 C         11.192881   -3.342320    0.077481
 C         10.110731   -2.461157    0.039835
 C         10.027311   -0.983257   -0.053324
 C         11.130344   -0.132340   -0.111677
 C         12.478577   -0.595048   -0.103508
 N         13.597296   -0.925946   -0.100589
 C         11.052557    1.288974   -0.178682
 N         11.048120    2.454954   -0.231839
 H          8.789419    1.452406   -0.239550
 H          7.529462   -4.713117    0.241616
 H         12.220279   -3.009584    0.034914
 N          1.644509    1.637722    0.028776
 N         -1.644521    1.637723   -0.028738
 N         -1.250978    6.384044    0.172678
 N          1.250968    6.384043   -0.172669
 C         -1.471202    0.275531   -0.536077
 H         -2.356409    0.008726   -1.117879
 H         -0.610496    0.237830   -1.203356
 H         -1.349389   -0.448703    0.273465
 C          1.471190    0.275533    0.536121
 H          1.349383   -0.448705   -0.273419
 H          2.356395    0.008732    1.117928
 H          0.610480    0.237834    1.203395
 C          7.553724    3.575127   -0.415940
 H          8.263556    3.542659    0.417560
 H          8.131197    3.437884   -1.337255
 H          7.122173    4.579206   -0.443068
 C         -7.553736    3.575136    0.415929
 H         -8.263577    3.542648   -0.417563
 H         -8.131200    3.437915    1.337254
 H         -7.122186    4.579216    0.443028
 S         -0.000005    7.464484   -0.000000
Cl         12.317046   -5.792374    0.217511
Cl          9.321020   -6.934342    0.357722
Cl         -9.320971   -6.934352   -0.357658
Cl        -12.317009   -5.792400   -0.217570
Se         -5.128054    0.114196    0.025633
Se          5.128042    0.114194   -0.025590
