        81
S0: Total Energy = -6309.95293368
 C         -7.142072   -0.516712   -0.143286
 C         -7.123020   -1.930801   -0.283444
 C         -5.818372   -2.428675   -0.256385
 C         -4.820716   -1.446505   -0.099817
 C         -3.534131   -2.022178   -0.093204
 C         -3.556290   -3.415380   -0.236748
 C         -2.228019   -3.870322   -0.168828
 C         -1.659703   -5.184239   -0.133746
 C         -0.237209   -5.333271    0.084151
 S         -5.489363    0.149099    0.009406
 S         -5.166989   -4.073451   -0.394550
 C          6.080119   -1.890380    0.180661
 C          5.778878   -3.268241    0.288413
 C          4.396913   -3.488790    0.257650
 C          3.621324   -2.320456    0.131129
 C          2.242318   -2.620299    0.118595
 C          1.979979   -3.991172    0.226752
 C          0.586488   -4.163905    0.152858
 C          0.018958   -2.859727    0.035854
 C         -1.406808   -2.712333   -0.017660
 S          4.603533   -0.895236    0.050320
 S          3.423033   -4.967710    0.359018
 C         -8.359908    0.195846   -0.128043
 C         -8.705440    1.534271   -0.015707
 C         -7.765939    2.667386    0.104135
 O         -6.539330    2.629627    0.144797
 C         -8.584047    3.898742    0.164568
 C         -8.135537    5.208587    0.272859
 C         -9.098131    6.206386    0.310370
 C        -10.460354    5.885955    0.240506
 C        -10.907004    4.574583    0.133031
 C         -9.945463    3.557941    0.094149
 C        -10.062267    2.078848   -0.011385
 C        -11.269269    1.398183   -0.078389
 C        -12.541039    2.047458   -0.066081
 N        -13.602248    2.529266   -0.060365
 C        -11.397321   -0.020952   -0.160498
 N        -11.561562   -1.173427   -0.227330
 H         -9.197923   -0.482442   -0.230920
 H         -7.079051    5.448365    0.326236
 F         -8.750232    7.495301    0.413582
 F        -11.346783    6.889840    0.279892
 H        -11.973214    4.402015    0.083723
 C          7.402879   -1.399216    0.182213
 C          7.961043   -0.143918    0.096876
 C          7.344076    1.174499   -0.031909
 O          6.150571    1.448366   -0.092546
 C          8.477480    2.174041   -0.077373
 C          8.439931    3.558731   -0.195111
 C          9.658234    4.269201   -0.209786
 C         10.885048    3.584329   -0.105383
 C         10.908808    2.179496    0.013014
 C          9.701104    1.492273    0.023655
 C          9.426801    0.013207    0.132005
 H          8.156945   -2.181765    0.271618
 N          1.051332   -1.928612   -0.011854
 N         -2.227048   -1.592023    0.055858
 N         -2.314497   -6.334645   -0.232092
 N          0.169911   -6.595052    0.148950
 C         -1.908924   -0.263468    0.579778
 H         -2.754751    0.084488    1.176419
 H         -1.041568   -0.324271    1.236550
 H         -1.721173    0.457831   -0.219762
 C          1.010707   -0.545439   -0.486889
 H          0.975028    0.170045    0.338801
 H          1.909468   -0.355838   -1.077363
 H          0.149042   -0.404102   -1.138605
 C          6.804346   -4.361525    0.424383
 H          7.526581   -4.340642   -0.398465
 H          7.365353   -4.267402    1.361018
 H          6.326496   -5.344622    0.421089
 C         -8.344472   -2.794684   -0.442654
 H         -9.036211   -2.679553    0.398447
 H         -8.898874   -2.543340   -1.353533
 H         -8.066675   -3.850160   -0.502937
 S         -1.182370   -7.536837   -0.056461
 O         10.260651   -0.875481    0.228030
Cl         12.421911    1.335170    0.144794
Cl         12.374759    4.474188   -0.122940
Cl          9.647014    5.998494   -0.356898
Cl          6.930312    4.411464   -0.323980
        81
T1: Total Energy = -6309.90643822
 C         -7.132420   -0.519283   -0.127101
 C         -7.102915   -1.950321   -0.261662
 C         -5.804896   -2.433100   -0.230332
 C         -4.800100   -1.445565   -0.077796
 C         -3.526314   -2.006448   -0.070675
 C         -3.539583   -3.425061   -0.205728
 C         -2.232051   -3.870575   -0.133459
 C         -1.659794   -5.188201   -0.119843
 C         -0.234610   -5.336662    0.052941
 S         -5.489879    0.159810    0.020095
 S         -5.151814   -4.086011   -0.360582
 C          6.065483   -1.889325    0.156948
 C          5.756739   -3.277964    0.245149
 C          4.382546   -3.489478    0.215705
 C          3.602390   -2.312694    0.110587
 C          2.235784   -2.603127    0.098295
 C          1.964522   -3.993358    0.182997
 C          0.590383   -4.163875    0.111514
 C          0.005854   -2.839928    0.022015
 C         -1.391070   -2.696693    0.006224
 S          4.597460   -0.884083    0.047949
 S          3.407307   -4.974527    0.295324
 C         -8.353838    0.182111   -0.113092
 C         -8.701566    1.532986   -0.009397
 C         -7.757044    2.670856    0.075804
 O         -6.530031    2.628214    0.103367
 C         -8.569377    3.905479    0.118455
 C         -8.120221    5.216198    0.191346
 C         -9.083106    6.216539    0.218131
 C        -10.443070    5.892268    0.173459
 C        -10.891276    4.576317    0.102265
 C         -9.931506    3.559497    0.073608
 C        -10.044937    2.077610    0.006384
 C        -11.261524    1.388271   -0.018741
 C        -12.529399    2.038529   -0.016002
 N        -13.590464    2.524003   -0.017123
 C        -11.395011   -0.029831   -0.035290
 N        -11.573171   -1.183463   -0.044146
 H         -9.191441   -0.496447   -0.206345
 H         -7.063231    5.457536    0.226134
 F         -8.732085    7.509234    0.286842
 F        -11.333114    6.894781    0.201060
 H        -11.958036    4.402702    0.071348
 C          7.389288   -1.407930    0.160456
 C          7.949261   -0.146728    0.088937
 C          7.335264    1.173424   -0.020560
 O          6.140371    1.449328   -0.071588
 C          8.468699    2.172026   -0.059956
 C          8.432828    3.557548   -0.161438
 C          9.652936    4.266744   -0.174301
 C         10.878497    3.579184   -0.084261
 C         10.900442    2.172170    0.017849
 C          9.692165    1.487059    0.026901
 C          9.414700    0.008218    0.119192
 H          8.141435   -2.192864    0.235512
 N          1.049822   -1.907787   -0.012925
 N         -2.226409   -1.572006    0.072972
 N         -2.316865   -6.334855   -0.208907
 N          0.177156   -6.595556    0.096694
 C         -1.913268   -0.247950    0.612872
 H         -2.767395    0.097122    1.199248
 H         -1.055671   -0.316849    1.282184
 H         -1.711549    0.478748   -0.178092
 C          1.007055   -0.520134   -0.475869
 H          0.955611    0.186406    0.356384
 H          1.911997   -0.319410   -1.052925
 H          0.152510   -0.378874   -1.137428
 C          6.787420   -4.367617    0.357064
 H          7.468916   -4.364362   -0.500879
 H          7.394639   -4.252217    1.261930
 H          6.311724   -5.350986    0.399559
 C         -8.328761   -2.805136   -0.422024
 H         -9.025471   -2.679916    0.414156
 H         -8.877403   -2.554231   -1.337303
 H         -8.059558   -3.863670   -0.475506
 S         -1.180095   -7.541434   -0.075993
 O         10.246019   -0.885328    0.201369
Cl         12.413147    1.324004    0.131457
Cl         12.369967    4.466256   -0.099338
Cl          9.643114    5.997681   -0.301555
Cl          6.923955    4.414690   -0.272584
        81
S1: Total Energy = -6309.88930719
 C         -7.134365   -0.524358   -0.129815
 C         -7.112011   -1.939653   -0.263814
 C         -5.802859   -2.431562   -0.233825
 C         -4.808096   -1.448705   -0.081321
 C         -3.522565   -2.017589   -0.078064
 C         -3.539973   -3.425312   -0.217480
 C         -2.225254   -3.873028   -0.142931
 C         -1.654093   -5.189443   -0.125183
 C         -0.230108   -5.339302    0.057938
 S         -5.490610    0.151751    0.018521
 S         -5.153918   -4.082059   -0.370078
 C          6.068077   -1.890867    0.162590
 C          5.763821   -3.276429    0.255175
 C          4.386682   -3.491105    0.225208
 C          3.608089   -2.315642    0.115291
 C          2.239646   -2.608859    0.102270
 C          1.971083   -3.996818    0.191451
 C          0.594447   -4.168128    0.119436
 C          0.012359   -2.845613    0.025739
 C         -1.390395   -2.702620    0.001381
 S          4.600167   -0.886990    0.048466
 S          3.414038   -4.976074    0.308857
 C         -8.362720    0.189893   -0.113300
 C         -8.704524    1.530322   -0.009157
 C         -7.755678    2.666061    0.081173
 O         -6.528595    2.618280    0.111091
 C         -8.565018    3.900213    0.125060
 C         -8.112296    5.209344    0.202886
 C         -9.071498    6.213127    0.231797
 C        -10.433726    5.892753    0.184139
 C        -10.887524    4.580693    0.107833
 C         -9.931145    3.556120    0.076973
 C        -10.054749    2.084778    0.005207
 C        -11.272715    1.394456   -0.025685
 C        -12.539622    2.044732   -0.021558
 N        -13.600053    2.533330   -0.021315
 C        -11.404958   -0.022339   -0.050367
 N        -11.578269   -1.177553   -0.066809
 H         -9.200687   -0.489275   -0.204957
 H         -7.054414    5.446618    0.240095
 F         -8.716832    7.505082    0.305488
 F        -11.318698    6.900025    0.214142
 H        -11.954822    4.410651    0.074662
 C          7.394862   -1.406137    0.165272
 C          7.951040   -0.146743    0.091008
 C          7.334042    1.173984   -0.021311
 O          6.137988    1.444978   -0.072990
 C          8.464376    2.172413   -0.062310
 C          8.425654    3.557874   -0.166558
 C          9.644945    4.269809   -0.180360
 C         10.871751    3.585213   -0.088518
 C         10.897101    2.177684    0.016297
 C          9.690381    1.489710    0.026251
 C          9.417785    0.012097    0.120786
 H          8.147674   -2.190370    0.242378
 N          1.052573   -1.914444   -0.012804
 N         -2.225653   -1.580674    0.069024
 N         -2.311111   -6.336959   -0.217230
 N          0.180436   -6.599179    0.105980
 C         -1.915515   -0.248463    0.590523
 H         -2.773460    0.104612    1.166057
 H         -1.062347   -0.306947    1.266136
 H         -1.710207    0.465661   -0.210729
 C          1.010911   -0.524144   -0.469002
 H          0.956781    0.177603    0.366892
 H          1.917997   -0.321394   -1.041688
 H          0.159154   -0.380246   -1.133229
 C          6.793976   -4.365930    0.374001
 H          7.489917   -4.353828   -0.471906
 H          7.384886   -4.258123    1.290580
 H          6.318862   -5.350116    0.398974
 C         -8.333650   -2.802322   -0.425167
 H         -9.041666   -2.667430    0.399480
 H         -8.871318   -2.569476   -1.351479
 H         -8.059555   -3.860437   -0.457874
 S         -1.176210   -7.542818   -0.074873
 O         10.249567   -0.880964    0.204052
Cl         12.411615    1.333502    0.132192
Cl         12.361056    4.475078   -0.104639
Cl          9.631115    6.000092   -0.310929
Cl          6.915304    4.411599   -0.280112
