        97
S0: Total Energy = -5125.90449454
 C          6.641570   -1.592913    0.230948
 C          6.477471   -2.999054    0.361610
 C          5.129582   -3.361641    0.317098
 C          4.238603   -2.281776    0.160034
 C          2.900285   -2.723989    0.137242
 C          2.779653   -4.114046    0.266839
 C          1.413282   -4.431965    0.179895
 C          0.713536   -5.680378    0.119771
 C         -0.713595   -5.680378   -0.119796
 S          5.066767   -0.761668    0.064948
 S          4.313800   -4.933402    0.432766
 C         -6.641625   -1.592908   -0.230990
 C         -6.477526   -2.999052   -0.361646
 C         -5.129639   -3.361639   -0.317132
 C         -4.238657   -2.281772   -0.160075
 C         -2.900341   -2.723986   -0.137284
 C         -2.779711   -4.114045   -0.266872
 C         -1.413340   -4.431965   -0.179926
 C         -0.715856   -3.195184   -0.034184
 C          0.715799   -3.195185    0.034143
 S         -5.066817   -0.761663   -0.065006
 S         -4.313856   -4.933401   -0.432800
 C          7.925917   -1.008826    0.240276
 C          8.410058    0.287435    0.133717
 C          7.590702    1.504940   -0.039032
 O          6.365168    1.578609   -0.105735
 C          8.525331    2.645322   -0.119804
 C          8.224202    3.971324   -0.284916
 C          9.282089    4.917139   -0.341560
 C         10.637470    4.449243   -0.223279
 C         10.907600    3.062326   -0.051916
 C          9.860892    2.163395    0.000414
 C          9.816505    0.688546    0.166882
 C         10.939594   -0.114577    0.326796
 C         12.273705    0.392385    0.346593
 N         13.381960    0.753340    0.370027
 C         10.909601   -1.530723    0.494569
 N         10.944555   -2.688084    0.635694
 H          8.687188   -1.770131    0.356458
 H          7.190415    4.293539   -0.371876
 H         11.941607    2.755626    0.031966
 C         -7.925964   -1.008814   -0.240288
 C         -8.410084    0.287457   -0.133712
 C         -7.590695    1.504943    0.038977
 O         -6.365156    1.578582    0.105644
 C         -8.525292    2.645352    0.119757
 C         -8.224121    3.971346    0.284830
 C         -9.281982    4.917195    0.341489
 C        -10.637378    4.449330    0.223258
 C        -10.907552    3.062411    0.051951
 C         -9.860874    2.163451   -0.000400
 C         -9.816522    0.688593   -0.166826
 C        -10.939638   -0.114516   -0.326649
 C        -12.273742    0.392467   -0.346401
 N        -13.382009    0.753388   -0.369802
 C        -10.909685   -1.530671   -0.494352
 N        -10.944738   -2.688037   -0.635413
 H         -8.687249   -1.770107   -0.356454
 H         -7.190324    4.293540    0.371747
 H        -11.941571    2.755743   -0.031878
 N         -1.645139   -2.162299    0.019199
 N          1.645085   -2.162303   -0.019252
 N          1.245857   -6.892845    0.209590
 N         -1.245918   -6.892846   -0.209605
 C          1.465141   -0.807467   -0.542647
 H          2.340474   -0.548581   -1.141927
 H          0.594020   -0.778871   -1.196653
 H          1.355299   -0.070741    0.257384
 C         -1.465193   -0.807463    0.542594
 H         -1.355359   -0.070735   -0.257436
 H         -2.340521   -0.548580    1.141882
 H         -0.594066   -0.778867    1.196592
 C         -7.603331   -3.984232   -0.521020
 H         -8.265562   -3.984002    0.351811
 H         -8.222337   -3.756005   -1.394991
 H         -7.214988   -4.998654   -0.643540
 C          7.603275   -3.984235    0.520994
 H          8.265558   -3.983950   -0.351795
 H          8.222225   -3.756053    1.395018
 H          7.214932   -4.998668    0.643431
 S         -0.000031   -7.970623   -0.000003
 C        -11.700011    5.390993    0.280080
 C         -9.036423    6.304631    0.511604
 C          9.036573    6.304577   -0.511726
 C         11.700133    5.390880   -0.280060
 H         -8.022873    6.681132    0.602834
 H        -12.732043    5.067265    0.193409
 H          8.023035    6.681093   -0.603018
 H         12.732146    5.067133   -0.193253
 C        -11.423029    6.721861    0.445365
 C        -10.089029    7.179765    0.561324
 C         10.089205    7.179680   -0.561390
 C         11.423192    6.721744   -0.445344
 F        -12.404785    7.634360    0.502619
 F         -9.890626    8.496814    0.721206
 F          9.890855    8.496745   -0.721231
 F         12.404968    7.634227   -0.502532
        97
T1: Total Energy = -5125.86030504
 C         -6.630749    1.593698    0.211377
 C         -6.457315    3.012920    0.326975
 C         -5.115962    3.362903    0.285746
 C         -4.219462    2.275778    0.144029
 C         -2.893574    2.705816    0.120321
 C         -2.763791    4.117938    0.232853
 C         -1.417306    4.429471    0.143821
 C         -0.714943    5.681333    0.098183
 C          0.715098    5.681337   -0.098134
 S         -5.065944    0.750165    0.061596
 S         -4.298549    4.941438    0.386854
 C          6.630933    1.593746   -0.211344
 C          6.457490    3.012966   -0.326960
 C          5.116135    3.362939   -0.285696
 C          4.219645    2.275811   -0.143935
 C          2.893754    2.705839   -0.120218
 C          2.763959    4.117957   -0.232778
 C          1.417472    4.429480   -0.143743
 C          0.702056    3.175107   -0.016700
 C         -0.701879    3.175101    0.016813
 S          5.066139    0.750207   -0.061497
 S          4.298708    4.941466   -0.386801
 C         -7.917954    1.020208    0.226440
 C         -8.405388   -0.284381    0.133031
 C         -7.586085   -1.505604   -0.032750
 O         -6.359837   -1.577702   -0.096913
 C         -8.519122   -2.646015   -0.110868
 C         -8.218645   -3.971999   -0.271703
 C         -9.278138   -4.918098   -0.327170
 C        -10.632335   -4.447522   -0.211668
 C        -10.901133   -3.057968   -0.043996
 C         -9.854266   -2.160390    0.006824
 C         -9.803843   -0.686001    0.169331
 C        -10.929743    0.124525    0.332509
 C        -12.262867   -0.380158    0.352056
 N        -13.372423   -0.739673    0.375010
 C        -10.900925    1.538398    0.506140
 N        -10.944545    2.695388    0.653853
 H         -8.677483    1.783590    0.331895
 H         -7.185109   -4.295759   -0.356419
 H        -11.934943   -2.750024    0.037909
 C          7.918124    1.020231   -0.226456
 C          8.405480   -0.284384   -0.133052
 C          7.586068   -1.505525    0.032790
 O          6.359815   -1.577494    0.097027
 C          8.518997   -2.646024    0.110885
 C          8.218402   -3.971976    0.271769
 C          9.277808   -4.918173    0.327200
 C         10.632044   -4.447730    0.211614
 C         10.900966   -3.058205    0.043900
 C          9.854181   -2.160529   -0.006883
 C          9.803898   -0.686139   -0.169418
 C         10.929891    0.124244   -0.332676
 C         12.262942   -0.380627   -0.352306
 N         13.372442   -0.740313   -0.375327
 C         10.901267    1.538117   -0.506335
 N         10.945107    2.695095   -0.654077
 H          8.677676    1.783581   -0.331959
 H          7.184840   -4.295635    0.356546
 H         11.934801   -2.750360   -0.038070
 N          1.644655    2.140114    0.025068
 N         -1.644469    2.140098   -0.024933
 N         -1.250813    6.890619    0.173433
 N          1.250956    6.890626   -0.173419
 C         -1.467477    0.783714   -0.546839
 H         -2.348019    0.521907   -1.137094
 H         -0.602130    0.755259   -1.208783
 H         -1.348753    0.050198    0.254670
 C          1.467680    0.783742    0.547010
 H          1.348942    0.050207   -0.254480
 H          2.348235    0.521952    1.137253
 H          0.602347    0.755299    1.208972
 C          7.587880    3.993617   -0.470866
 H          8.260774    3.963817    0.393551
 H          8.195776    3.784991   -1.358029
 H          7.206726    5.014493   -0.560525
 C         -7.587718    3.993565    0.470829
 H         -8.260587    3.963744   -0.393607
 H         -8.195636    3.784950    1.357979
 H         -7.206575    5.014446    0.560480
 S          0.000066    7.972336   -0.000009
 C         11.694496   -5.388335    0.267252
 C          9.033434   -6.305542    0.493502
 C         -9.033887   -6.305492   -0.493431
 C        -11.694874   -5.388026   -0.267345
 H          8.019997   -6.683053    0.582684
 H         12.726482   -5.063783    0.182567
 H         -8.020481   -6.683102   -0.582552
 H        -12.726834   -5.063374   -0.182725
 C         11.419001   -6.720962    0.428973
 C         10.086816   -7.180912    0.542352
 C        -10.087350   -7.180763   -0.542321
 C        -11.419498   -6.720683   -0.429024
 F         12.403430   -7.631516    0.484821
 F          9.888293   -8.499249    0.698849
 F         -9.888945   -8.499122   -0.698780
 F        -12.404011   -7.631144   -0.484909
        97
S1: Total Energy = -5125.84490823
 C         -6.632115    1.596256    0.217347
 C         -6.464456    3.007641    0.334552
 C         -5.117155    3.363030    0.291820
 C         -4.225061    2.279140    0.147789
 C         -2.893324    2.713973    0.124659
 C         -2.767169    4.120421    0.240879
 C         -1.416500    4.433491    0.150919
 C         -0.714711    5.684100    0.102424
 C          0.714507    5.684092   -0.102509
 S         -5.066081    0.755024    0.064376
 S         -4.303081    4.940884    0.396030
 C          6.631894    1.596213   -0.217298
 C          6.464236    3.007593   -0.334557
 C          5.116939    3.362993   -0.291820
 C          4.224842    2.279113   -0.147732
 C          2.893108    2.713955   -0.124615
 C          2.766958    4.120398   -0.240899
 C          1.416291    4.433478   -0.150949
 C          0.704146    3.181490   -0.020244
 C         -0.704360    3.181494    0.020273
 S          5.065856    0.754996   -0.064257
 S          4.302873    4.940847   -0.396093
 C         -7.923279    1.015635    0.232634
 C         -8.405756   -0.284343    0.137480
 C         -7.584421   -1.504097   -0.033713
 O         -6.357928   -1.573372   -0.099102
 C         -8.515861   -2.644194   -0.115948
 C         -8.213066   -3.969013   -0.282901
 C         -9.270743   -4.917338   -0.342201
 C        -10.626703   -4.449629   -0.223939
 C        -10.898401   -3.062217   -0.049659
 C         -9.852764   -2.160873    0.005078
 C         -9.808242   -0.691277    0.175009
 C        -10.933751    0.117701    0.346389
 C        -12.266440   -0.387714    0.366236
 N        -13.375758   -0.748721    0.389577
 C        -10.904195    1.529955    0.530390
 N        -10.945221    2.686164    0.687206
 H         -8.683438    1.778388    0.340565
 H         -7.178918   -4.290271   -0.369564
 H        -11.932681   -2.756393    0.034270
 C          7.923073    1.015620   -0.232593
 C          8.405647   -0.284323   -0.137424
 C          7.584451   -1.504170    0.033781
 O          6.357968   -1.573595    0.099179
 C          8.516021   -2.644165    0.115987
 C          8.213375   -3.969020    0.282920
 C          9.271157   -4.917230    0.342188
 C         10.627063   -4.449369    0.223915
 C         10.898606   -3.061924    0.049656
 C          9.852869   -2.160694   -0.005054
 C          9.808173   -0.691099   -0.174961
 C         10.933563    0.118043   -0.346340
 C         12.266332   -0.387157   -0.366218
 N         13.375714   -0.747965   -0.389580
 C         10.903766    1.530294   -0.530324
 N         10.944515    2.686517   -0.687115
 H          8.683197    1.778406   -0.340558
 H          7.179263   -4.290394    0.369591
 H         11.932851   -2.755987   -0.034283
 N          1.644709    2.147960    0.023770
 N         -1.644928    2.147966   -0.023694
 N         -1.249928    6.894229    0.180680
 N          1.249728    6.894216   -0.180820
 C         -1.469132    0.788479   -0.538452
 H         -2.352455    0.523275   -1.122711
 H         -0.607251    0.757104   -1.204600
 H         -1.346631    0.060029    0.266934
 C          1.468910    0.788498    0.538591
 H          1.346401    0.060012   -0.266761
 H          2.352234    0.523316    1.122858
 H          0.607031    0.757157    1.204745
 C          7.592590    3.991106   -0.480234
 H          8.257152    3.974353    0.390919
 H          8.209543    3.775078   -1.359070
 H          7.208296    5.009299   -0.585295
 C         -7.592804    3.991170    0.480161
 H         -8.257353    3.974376   -0.391002
 H         -8.209773    3.775195    1.358998
 H         -7.208503    5.009365    0.585174
 S         -0.000097    7.974811   -0.000094
 C         11.687430   -5.392251    0.283610
 C          9.024470   -6.302834    0.514666
 C         -9.023900   -6.302911   -0.514703
 C        -11.686964   -5.392628   -0.283665
 H          8.010379   -6.678152    0.605839
 H         12.720058   -5.070246    0.197115
 H         -8.009766   -6.678115   -0.605869
 H        -12.719629   -5.070740   -0.197177
 C         11.409301   -6.723827    0.451381
 C         10.076439   -7.180576    0.567145
 C        -10.075771   -7.180769   -0.567214
 C        -11.408685   -6.724169   -0.451459
 F         12.392130   -7.635888    0.511007
 F          9.874792   -8.497707    0.729547
 F         -9.873976   -8.497874   -0.729639
 F        -12.391412   -7.636338   -0.511117
