        97
S0: Total Energy = -5522.79738508
 C         -6.640312    1.917524    0.247490
 C         -6.475128    3.324963    0.377519
 C         -5.128100    3.686451    0.329509
 C         -4.237618    2.605383    0.170052
 C         -2.899742    3.046837    0.143452
 C         -2.778455    4.437378    0.272661
 C         -1.412683    4.754765    0.182670
 C         -0.713152    6.003379    0.121202
 C          0.713117    6.003378   -0.121242
 S         -5.065791    1.085593    0.077630
 S         -4.311309    5.257885    0.442769
 C          6.640271    1.917513   -0.247498
 C          6.475089    3.324953   -0.377519
 C          5.128060    3.686442   -0.329533
 C          4.237574    2.605374   -0.170103
 C          2.899699    3.046830   -0.143515
 C          2.778416    4.437373   -0.272709
 C          1.412645    4.754763   -0.182722
 C          0.715710    3.517449   -0.035597
 C         -0.715752    3.517450    0.035526
 S          5.065744    1.085582   -0.077683
 S          4.311274    5.257879   -0.442795
 C         -7.923492    1.335156    0.260152
 C         -8.409022    0.037391    0.155692
 C         -7.589730   -1.177944   -0.016386
 O         -6.365032   -1.254883   -0.085827
 C         -8.524909   -2.320689   -0.093017
 C         -8.217650   -3.644564   -0.255863
 C         -9.279426   -4.584758   -0.308019
 C        -10.633138   -4.117519   -0.189315
 C        -10.910415   -2.732782   -0.020017
 C         -9.860637   -1.838701    0.028551
 C         -9.814683   -0.361978    0.192352
 C        -10.938148    0.439498    0.352719
 C        -12.271948   -0.068238    0.376732
 N        -13.380175   -0.428646    0.403841
 C        -10.907674    1.856165    0.517061
 N        -10.941367    3.013790    0.655413
 H         -8.684604    2.096422    0.377403
 H         -7.186847   -3.969672   -0.344065
 H        -11.944418   -2.430993    0.064454
 C          7.923456    1.335152   -0.260129
 C          8.409005    0.037393   -0.155668
 C          7.589732   -1.177961    0.016373
 O          6.365033   -1.254927    0.085763
 C          8.524927   -2.320690    0.093008
 C          8.217684   -3.644574    0.255820
 C          9.279473   -4.584751    0.307992
 C         10.633180   -4.117489    0.189340
 C         10.910440   -2.732744    0.020075
 C          9.860651   -1.838678   -0.028510
 C          9.814677   -0.361951   -0.192288
 C         10.938135    0.439548   -0.352602
 C         12.271946   -0.068163   -0.376574
 N         13.380194   -0.428509   -0.403650
 C         10.907646    1.856219   -0.516913
 N         10.941382    3.013847   -0.655228
 H          8.684561    2.096428   -0.377349
 H          7.186884   -3.969700    0.343984
 H         11.944441   -2.430939   -0.064358
 N          1.645095    2.484843    0.015817
 N         -1.645141    2.484849   -0.015900
 N         -1.245376    7.215704    0.212117
 N          1.245344    7.215703   -0.212140
 C         -1.466557    1.129333   -0.538570
 H         -2.343361    0.870080   -1.135459
 H         -0.597245    1.100244   -1.194904
 H         -1.354814    0.393501    0.261935
 C          1.466504    1.129322    0.538471
 H          1.354770    0.393498   -0.262042
 H          2.343302    0.870063    1.135368
 H          0.597186    1.100226    1.194796
 C          7.600373    4.309909   -0.539757
 H          8.266452    4.307303    0.330115
 H          8.215135    4.083041   -1.417097
 H          7.211977    5.324727   -0.658341
 C         -7.600408    4.309917    0.539799
 H         -8.266553    4.307273   -0.330022
 H         -8.215103    4.083076    1.417194
 H         -7.212013    5.324743    0.658315
 S         -0.000014    8.293479   -0.000004
 C         11.679378   -5.068727    0.245327
 C          9.049804   -5.968814    0.474318
 C         -9.049740   -5.968814   -0.474378
 C        -11.679322   -5.068773   -0.245286
 C         11.421929   -6.410426    0.408303
 C         10.091203   -6.866503    0.524344
 C        -10.091126   -6.866518   -0.524386
 C        -11.421857   -6.410465   -0.408294
 F         12.415095   -7.301815    0.459797
 F          9.868772   -8.173855    0.681872
 F         -9.868680   -8.173864   -0.681943
 F        -12.415010   -7.301870   -0.459771
 F         12.952798   -4.660415    0.137481
 F          7.790809   -6.421558    0.586673
 F         -7.790742   -6.421535   -0.586780
 F        -12.952745   -4.660484   -0.137390
        97
T1: Total Energy = -5522.75393493
 C         -6.629293    1.919164    0.227555
 C         -6.455947    3.338399    0.343244
 C         -5.114586    3.688251    0.298530
 C         -4.219010    2.600842    0.153819
 C         -2.892896    3.030592    0.126818
 C         -2.763030    4.442832    0.239752
 C         -1.416849    4.754089    0.147361
 C         -0.714570    6.005990    0.100042
 C          0.714570    6.005988   -0.100145
 S         -5.065278    1.075683    0.073509
 S         -4.296975    5.266603    0.398158
 C          6.629300    1.919167   -0.227530
 C          6.455952    3.338397   -0.343261
 C          5.114589    3.688249   -0.298560
 C          4.219015    2.600844   -0.153811
 C          2.892901    3.030592   -0.126819
 C          2.763032    4.442828   -0.239803
 C          1.416851    4.754086   -0.147421
 C          0.702084    3.499534   -0.018258
 C         -0.702080    3.499533    0.018251
 S          5.065287    1.075690   -0.073432
 S          4.296976    5.266597   -0.398229
 C         -7.916465    1.345985    0.245010
 C         -8.403983    0.040852    0.152720
 C         -7.583945   -1.178407   -0.010788
 O         -6.358497   -1.252948   -0.076224
 C         -8.516848   -2.321455   -0.085238
 C         -8.209266   -3.645148   -0.242584
 C         -9.272130   -4.586425   -0.294199
 C        -10.625103   -4.117146   -0.180110
 C        -10.902145   -2.729940   -0.015836
 C         -9.852615   -1.836212    0.031895
 C         -9.802044   -0.360687    0.190476
 C        -10.928897    0.448173    0.351066
 C        -12.261503   -0.057855    0.373896
 N        -13.370896   -0.417271    0.399761
 C        -10.900584    1.862934    0.518160
 N        -10.943654    3.020551    0.660206
 H         -8.675925    2.109202    0.351677
 H         -7.178471   -3.971245   -0.327119
 H        -11.936160   -2.427429    0.065219
 C          7.916472    1.345987   -0.244968
 C          8.403988    0.040855   -0.152666
 C          7.583947   -1.178404    0.010823
 O          6.358496   -1.252948    0.076202
 C          8.516846   -2.321457    0.085254
 C          8.209258   -3.645153    0.242555
 C          9.272120   -4.586434    0.294163
 C         10.625096   -4.117153    0.180118
 C         10.902144   -2.729943    0.015890
 C          9.852616   -1.836213   -0.031840
 C          9.802050   -0.360685   -0.190393
 C         10.928908    0.448177   -0.350936
 C         12.261512   -0.057854   -0.373757
 N         13.370906   -0.417271   -0.399617
 C         10.900602    1.862943   -0.517983
 N         10.943678    3.020565   -0.659981
 H          8.675933    2.109204   -0.351633
 H          7.178462   -3.971251    0.327062
 H         11.936161   -2.427433   -0.065139
 N          1.644705    2.464879    0.022076
 N         -1.644698    2.464873   -0.022038
 N         -1.250258    7.215226    0.176730
 N          1.250254    7.215221   -0.176887
 C         -1.469191    1.107264   -0.541878
 H         -2.351203    0.844777   -1.129536
 H         -0.605689    1.077566   -1.206066
 H         -1.348829    0.375414    0.260811
 C          1.469207    1.107297    0.541991
 H          1.348826    0.375409   -0.260661
 H          2.351230    0.844838    1.129645
 H          0.605719    1.077634    1.206198
 C          7.585924    4.318846   -0.491063
 H          8.262573    4.288040    0.370328
 H          8.189543    4.110814   -1.381289
 H          7.204652    5.339863   -0.578078
 C         -7.585920    4.318850    0.491014
 H         -8.262569    4.288020   -0.370377
 H         -8.189540    4.110843    1.381246
 H         -7.204648    5.339870    0.578001
 S         -0.000003    8.296755   -0.000099
 C         11.670236   -5.068041    0.235526
 C          9.042694   -5.970196    0.455368
 C         -9.042710   -5.970183   -0.455452
 C        -11.670245   -5.068030   -0.235523
 C         11.413462   -6.411462    0.393681
 C         10.084132   -6.869011    0.505127
 C        -10.084150   -6.868994   -0.505216
 C        -11.413477   -6.411447   -0.393726
 F         12.408684   -7.301391    0.444447
 F          9.860583   -8.177553    0.658098
 F         -9.860607   -8.177532   -0.658234
 F        -12.408702   -7.301372   -0.444497
 F         12.944829   -4.660047    0.132147
 F          7.783127   -6.424223    0.563395
 F         -7.783146   -6.424208   -0.563522
 F        -12.944836   -4.660037   -0.132104
        97
S1: Total Energy = -5522.73854798
 C         -6.630614    1.921700    0.233471
 C         -6.463063    3.333280    0.350297
 C         -5.115828    3.688599    0.303968
 C         -4.224602    2.604415    0.157257
 C         -2.892549    3.038984    0.130797
 C         -2.766340    4.445436    0.247199
 C         -1.415870    4.758282    0.154142
 C         -0.714192    6.008926    0.104127
 C          0.714230    6.008925   -0.104227
 S         -5.065176    1.080601    0.076341
 S         -4.301449    5.266232    0.406423
 C          6.630657    1.921706   -0.233456
 C          6.463107    3.333286   -0.350285
 C          5.115869    3.688601   -0.304002
 C          4.224641    2.604415   -0.157315
 C          2.892588    3.038984   -0.130876
 C          2.766379    4.445436   -0.247278
 C          1.415908    4.758281   -0.154239
 C          0.704401    3.506163   -0.021727
 C         -0.704363    3.506164    0.021625
 S          5.065217    1.080604   -0.076369
 S          4.301490    5.266232   -0.406486
 C         -7.921558    1.341460    0.251568
 C         -8.404177    0.041055    0.158389
 C         -7.582499   -1.177154   -0.010458
 O         -6.356870   -1.248991   -0.077807
 C         -8.514158   -2.319531   -0.087986
 C         -8.204507   -3.642341   -0.250971
 C         -9.265725   -4.585685   -0.305364
 C        -10.620281   -4.119039   -0.188023
 C        -10.900052   -2.734000   -0.017708
 C         -9.851422   -1.836443    0.032923
 C         -9.806776   -0.365757    0.198229
 C        -10.932534    0.441764    0.367249
 C        -12.264991   -0.064564    0.391158
 N        -13.374308   -0.424761    0.418061
 C        -10.903033    1.855113    0.544288
 N        -10.943166    3.011994    0.695169
 H         -8.681611    2.104158    0.360428
 H         -7.173193   -3.966097   -0.337833
 H        -11.934454   -2.433496    0.065766
 C          7.921600    1.341464   -0.251512
 C          8.404204    0.041054   -0.158321
 C          7.582499   -1.177142    0.010495
 O          6.356865   -1.248961    0.077756
 C          8.514135   -2.319539    0.088005
 C          8.204454   -3.642350    0.250925
 C          9.265655   -4.585714    0.305324
 C         10.620224   -4.119087    0.188056
 C         10.900025   -2.734046    0.017803
 C          9.851411   -1.836470   -0.032836
 C          9.806799   -0.365779   -0.198105
 C         10.932583    0.441720   -0.367053
 C         12.265026   -0.064643   -0.390927
 N         13.374333   -0.424876   -0.417802
 C         10.903130    1.855074   -0.544060
 N         10.943317    3.011958   -0.694899
 H          8.681661    2.104159   -0.360333
 H          7.173132   -3.966092    0.337739
 H         11.934434   -2.433557   -0.065624
 N          1.644954    2.472885    0.020687
 N         -1.644918    2.472886   -0.020783
 N         -1.249235    7.219006    0.183668
 N          1.249274    7.219005   -0.183762
 C         -1.470430    1.112444   -0.534077
 H         -2.355150    0.846656   -1.115869
 H         -0.610364    1.080192   -1.202440
 H         -1.346178    0.385300    0.272133
 C          1.470461    1.112444    0.533981
 H          1.346233    0.385297   -0.272230
 H          2.355168    0.846661    1.115796
 H          0.610378    1.080190    1.202323
 C          7.591029    4.316652   -0.499382
 H          8.259583    4.298167    0.368627
 H          8.203528    4.101882   -1.381652
 H          7.206573    5.335096   -0.600873
 C         -7.590984    4.316641    0.499437
 H         -8.259560    4.298166   -0.368555
 H         -8.203458    4.101857    1.381720
 H         -7.206529    5.335085    0.600930
 S          0.000021    8.299431   -0.000045
 C         11.663189   -5.072429    0.246529
 C          9.033969   -5.967813    0.472166
 C         -9.034069   -5.967781   -0.472267
 C        -11.663265   -5.072363   -0.246487
 C         11.403797   -6.414927    0.410255
 C         10.073844   -6.869186    0.524652
 C        -10.073961   -6.869135   -0.524743
 C        -11.403901   -6.414859   -0.410272
 F         12.397461   -7.306500    0.463664
 F          9.847107   -8.176543    0.683041
 F         -9.847251   -8.176490   -0.683190
 F        -12.397582   -7.306413   -0.463673
 F         12.938692   -4.667711    0.140414
 F          7.773611   -6.419390    0.583225
 F         -7.773722   -6.419374   -0.583395
 F        -12.938756   -4.667627   -0.140306
