       103
S0: Total Energy = -5403.05924114
 C         -6.640529    2.037094    0.261065
 C         -6.475343    3.443829    0.389889
 C         -5.127949    3.805777    0.338910
 C         -4.237844    2.725253    0.178149
 C         -2.899742    3.167038    0.149047
 C         -2.778298    4.557292    0.277780
 C         -1.412431    4.874844    0.185279
 C         -0.713001    6.123344    0.122457
 C          0.713025    6.123345   -0.122447
 S         -5.066531    1.205323    0.087950
 S         -4.311229    5.377350    0.450346
 C          6.640557    2.037102   -0.261070
 C          6.475370    3.443838   -0.389889
 C          5.127976    3.805784   -0.338909
 C          4.237872    2.725258   -0.178153
 C          2.899770    3.167042   -0.149050
 C          2.778324    4.557296   -0.277777
 C          1.412457    4.874846   -0.185275
 C          0.715707    3.637783   -0.036997
 C         -0.715681    3.637782    0.036996
 S          5.066561    1.205329   -0.087960
 S          4.311254    5.377356   -0.450339
 C         -7.924369    1.453863    0.277403
 C         -8.409663    0.156881    0.175376
 C         -7.591293   -1.060046    0.002067
 O         -6.366377   -1.135227   -0.070494
 C         -8.526537   -2.202278   -0.071395
 C         -8.225166   -3.528266   -0.234062
 C         -9.283998   -4.474386   -0.283706
 C        -10.636062   -4.006134   -0.161643
 C        -10.908237   -2.618643    0.007567
 C         -9.861793   -1.719482    0.053373
 C         -9.815759   -0.243414    0.215833
 C        -10.938096    0.559678    0.378376
 C        -12.272188    0.052810    0.405622
 N        -13.380424   -0.307563    0.435180
 C        -10.907066    1.976408    0.541752
 N        -10.940531    3.134178    0.679450
 H         -8.684995    2.215416    0.396100
 H         -7.191479   -3.850295   -0.324516
 H        -11.942375   -2.312705    0.094828
 C          7.924396    1.453868   -0.277408
 C          8.409680    0.156883   -0.175383
 C          7.591295   -1.060034   -0.002076
 O          6.366377   -1.135199    0.070483
 C          8.526525   -2.202277    0.071389
 C          8.225138   -3.528261    0.234057
 C          9.283959   -4.474394    0.283704
 C         10.636029   -4.006158    0.161644
 C         10.908221   -2.618670   -0.007567
 C          9.861787   -1.719497   -0.053376
 C          9.815772   -0.243429   -0.215838
 C         10.938122    0.559644   -0.378381
 C         12.272205    0.052752   -0.405624
 N         13.380433   -0.307645   -0.435179
 C         10.907120    1.976374   -0.541761
 N         10.940617    3.134143   -0.679467
 H          8.685025    2.215418   -0.396101
 H          7.191446   -3.850278    0.324509
 H         11.942362   -2.312745   -0.094825
 N          1.645347    2.605096    0.012478
 N         -1.645319    2.605095   -0.012484
 N         -1.245031    7.335755    0.214286
 N          1.245054    7.335757   -0.214271
 C         -1.467729    1.249734   -0.535437
 H         -2.346293    0.989945   -1.129528
 H         -0.600383    1.220840   -1.194444
 H         -1.353182    0.513918    0.264738
 C          1.467758    1.249733    0.535425
 H          1.353212    0.513920   -0.264753
 H          2.346322    0.989942    1.129515
 H          0.600412    1.220835    1.194431
 C          7.600265    4.429073   -0.554355
 H          8.269890    4.424623    0.312763
 H          8.211573    4.204102   -1.434608
 H          7.211496    5.444205   -0.669212
 C         -7.600239    4.429061    0.554362
 H         -8.269884    4.424594   -0.312739
 H         -8.211525    4.204101    1.434634
 H         -7.211473    5.444198    0.669194
 S          0.000011    8.413521    0.000010
 C         11.695424   -4.950098    0.212787
 C          9.048101   -5.864518    0.450406
 C         -9.048158   -5.864513   -0.450408
 C        -11.695469   -4.950061   -0.212783
 H          8.024452   -6.216283    0.541344
 H         12.718535   -4.601643    0.120927
 H         -8.024513   -6.216291   -0.541347
 H        -12.718576   -4.601594   -0.120921
 C         11.428939   -6.290968    0.376220
 C         10.093727   -6.755972    0.496080
 C        -10.093794   -6.755955   -0.496078
 C        -11.429001   -6.290935   -0.376215
 C         12.541188   -7.301782    0.438218
 C        -12.541261   -7.301735   -0.438210
 F         13.759326   -6.745939    0.281446
 F         12.545140   -7.956520    1.623901
 F         12.400719   -8.246980   -0.521472
 F        -13.759392   -6.745878   -0.281436
 F        -12.545224   -7.956474   -1.623893
 F        -12.400802   -8.246935    0.521481
 H          9.904772   -7.817261    0.622793
 H         -9.904852   -7.817246   -0.622790
       103
T1: Total Energy = -5403.01527934
 C         -6.629521    2.037905    0.242057
 C         -6.455572    3.457245    0.356399
 C         -5.114445    3.807096    0.308307
 C         -4.218841    2.719790    0.162201
 C         -2.892982    3.149649    0.132362
 C         -2.762724    4.561881    0.244451
 C         -1.416710    4.873248    0.149612
 C         -0.714516    6.125117    0.101116
 C          0.714540    6.125119   -0.101108
 S         -5.065630    1.194329    0.084409
 S         -4.296561    5.385584    0.405493
 C          6.629553    2.037918   -0.242037
 C          6.455602    3.457257   -0.356377
 C          5.114473    3.807105   -0.308291
 C          4.218871    2.719798   -0.162187
 C          2.893011    3.149654   -0.132350
 C          2.762751    4.561886   -0.244437
 C          1.416736    4.873250   -0.149603
 C          0.701938    3.618732   -0.019532
 C         -0.701910    3.618731    0.019540
 S          5.065662    1.194337   -0.084402
 S          4.296587    5.385591   -0.405480
 C         -7.916523    1.464566    0.263866
 C         -8.404419    0.159563    0.174160
 C         -7.585896   -1.060931    0.007228
 O         -6.360247   -1.134288   -0.062706
 C         -8.519294   -2.203350   -0.064130
 C         -8.218182   -3.529129   -0.223149
 C         -9.278357   -4.475871   -0.272173
 C        -10.629461   -4.005389   -0.152712
 C        -10.900618   -2.615525    0.013481
 C         -9.854218   -1.717299    0.058269
 C         -9.802673   -0.241988    0.217387
 C        -10.927921    0.568163    0.383408
 C        -12.260920    0.063191    0.410490
 N        -13.370405   -0.295833    0.439709
 C        -10.898520    1.982665    0.552764
 N        -10.941288    3.140042    0.697143
 H         -8.675562    2.227978    0.372378
 H         -7.184645   -3.852359   -0.311488
 H        -11.934645   -2.308659    0.098860
 C          7.916553    1.464576   -0.263851
 C          8.404438    0.159569   -0.174151
 C          7.585900   -1.060913   -0.007202
 O          6.360252   -1.134251    0.062758
 C          8.519282   -2.203345    0.064147
 C          8.218154   -3.529119    0.223178
 C          9.278316   -4.475876    0.272189
 C         10.629426   -4.005414    0.152704
 C         10.900599   -2.615555   -0.013500
 C          9.854211   -1.717313   -0.058275
 C          9.802686   -0.242003   -0.217399
 C         10.927947    0.568126   -0.383442
 C         12.260935    0.063124   -0.410540
 N         13.370410   -0.295928   -0.439771
 C         10.898577    1.982628   -0.552802
 N         10.941381    3.140002   -0.697198
 H          8.675595    2.227983   -0.372366
 H          7.184614   -3.852334    0.311536
 H         11.934629   -2.308704   -0.098899
 N          1.644783    2.583884    0.018473
 N         -1.644753    2.583882   -0.018467
 N         -1.250102    7.334364    0.178589
 N          1.250124    7.334367   -0.178578
 C         -1.470120    1.226940   -0.539839
 H         -2.353564    0.964468   -1.125401
 H         -0.608225    1.198000   -1.206238
 H         -1.347330    0.494305    0.261834
 C          1.470151    1.226939    0.539838
 H          1.347371    0.494308   -0.261839
 H          2.353590    0.964469    1.125406
 H          0.608249    1.197994    1.206228
 C          7.585197    4.437870   -0.506225
 H          8.263540    4.406989    0.353859
 H          8.187290    4.230098   -1.397544
 H          7.203591    5.458862   -0.592347
 C         -7.585169    4.437855    0.506252
 H         -8.263517    4.406972   -0.353828
 H         -8.187256    4.230081    1.397574
 H         -7.203566    5.458848    0.592372
 S          0.000010    8.416012    0.000007
 C         11.688483   -4.948482    0.203331
 C          9.043142   -5.865609    0.435707
 C         -9.043200   -5.865608   -0.435680
 C        -11.688532   -4.948442   -0.203352
 H          8.019465   -6.218097    0.524655
 H         12.711595   -4.599406    0.113517
 H         -8.019526   -6.218111   -0.524610
 H        -12.711640   -4.599351   -0.113557
 C         11.423145   -6.291001    0.363895
 C         10.089359   -6.757665    0.481117
 C        -10.089429   -6.757649   -0.481103
 C        -11.423210   -6.290966   -0.363905
 C         12.536616   -7.300072    0.425458
 C        -12.536695   -7.300021   -0.425482
 F         13.754533   -6.742756    0.270272
 F         12.541365   -7.956851    1.610339
 F         12.398888   -8.244939   -0.535339
 F        -13.754606   -6.742686   -0.270316
 F        -12.541435   -7.956803   -1.610361
 F        -12.398995   -8.244887    0.535321
 H          9.900744   -7.819276    0.605540
 H         -9.900826   -7.819264   -0.605518
       103
S1: Total Energy = -5402.99984074
 C         -6.630834    2.040849    0.249354
 C         -6.462560    3.452450    0.364817
 C         -5.115523    3.807655    0.314704
 C         -4.224395    2.723514    0.166333
 C         -2.892631    3.158136    0.136753
 C         -2.765955    4.564629    0.252359
 C         -1.415701    4.877520    0.156605
 C         -0.714137    6.128148    0.105297
 C          0.714100    6.128145   -0.105345
 S         -5.065739    1.199521    0.087893
 S         -4.300865    5.385408    0.414628
 C          6.630792    2.040837   -0.249351
 C          6.462518    3.452437   -0.364826
 C          5.115482    3.807645   -0.314712
 C          4.224354    2.723506   -0.166324
 C          2.892590    3.158130   -0.136752
 C          2.765916    4.564621   -0.252381
 C          1.415662    4.877515   -0.156630
 C          0.704205    3.625403   -0.023033
 C         -0.704244    3.625404    0.023030
 S          5.065698    1.199515   -0.087850
 S          4.300826    5.385397   -0.414659
 C         -7.921689    1.460484    0.272877
 C         -8.404830    0.160111    0.182463
 C         -7.584753   -1.059148    0.008332
 O         -6.358998   -1.129737   -0.064741
 C         -8.516936   -2.200874   -0.066414
 C         -8.214089   -3.525583   -0.232928
 C         -9.272674   -4.474239   -0.284911
 C        -10.625217   -4.006470   -0.160458
 C        -10.898722   -2.618835    0.013725
 C         -9.853235   -1.717058    0.061641
 C         -9.807109   -0.246649    0.229383
 C        -10.931260    0.561915    0.407032
 C        -12.263942    0.056517    0.436550
 N        -13.373254   -0.303568    0.468027
 C        -10.900382    1.974578    0.588936
 N        -10.939983    3.130934    0.744402
 H         -8.681198    2.223351    0.384402
 H         -7.180147   -3.846454   -0.324948
 H        -11.933030   -2.313950    0.102742
 C          7.921649    1.460475   -0.272876
 C          8.404807    0.160109   -0.182451
 C          7.584750   -1.059166   -0.008342
 O          6.358994   -1.129780    0.064716
 C          8.516951   -2.200877    0.066402
 C          8.214127   -3.525593    0.232901
 C          9.272728   -4.474231    0.284885
 C         10.625264   -4.006436    0.160448
 C         10.898745   -2.618794   -0.013718
 C          9.853243   -1.717036   -0.061635
 C          9.807092   -0.246625   -0.229355
 C         10.931231    0.561966   -0.406958
 C         12.263923    0.056597   -0.436474
 N         13.373244   -0.303461   -0.467950
 C         10.900325    1.974634   -0.588814
 N         10.939891    3.130998   -0.744228
 H          8.681152    2.223348   -0.384410
 H          7.180190   -3.846483    0.324909
 H         11.933049   -2.313891   -0.102720
 N          1.645015    2.592003    0.017050
 N         -1.645055    2.592005   -0.017036
 N         -1.249077    7.338242    0.185678
 N          1.249040    7.338237   -0.185749
 C         -1.471538    1.232015   -0.531386
 H         -2.357902    0.965992   -1.110598
 H         -0.613375    1.200324   -1.202306
 H         -1.344513    0.504432    0.274050
 C          1.471497    1.232023    0.531425
 H          1.344466    0.504427   -0.273999
 H          2.357863    0.966008    1.110637
 H          0.613337    1.200345    1.202349
 C          7.589954    4.435999   -0.516577
 H          8.261028    4.417011    0.349499
 H          8.200100    4.221853   -1.400628
 H          7.205089    5.454487   -0.616328
 C         -7.589995    4.436016    0.516543
 H         -8.261063    4.417014   -0.349538
 H         -8.200147    4.221888    1.400594
 H         -7.205128    5.454506    0.616279
 S         -0.000017    8.418751   -0.000040
 C         11.682381   -4.951762    0.214253
 C          9.035511   -5.862211    0.455907
 C         -9.035433   -5.862214   -0.455946
 C        -11.682318   -4.951814   -0.214262
 H          8.011355   -6.212420    0.548473
 H         12.706025   -4.605236    0.120787
 H         -8.011272   -6.212404   -0.548523
 H        -12.705967   -4.605307   -0.120784
 C         11.414628   -6.293174    0.382173
 C         10.080335   -6.756559    0.504071
 C        -10.080242   -6.756580   -0.504109
 C        -11.414542   -6.293220   -0.382197
 C         12.526230   -7.304020    0.446935
 C        -12.526127   -7.304085   -0.446959
 F         13.744952   -6.750009    0.286226
 F         12.532276   -7.954502    1.635356
 F         12.384783   -8.253940   -0.508410
 F        -13.744858   -6.750096   -0.286244
 F        -12.532165   -7.954563   -1.635382
 F        -12.384660   -8.254006    0.508383
 H          9.889655   -7.817120    0.634209
 H         -9.889544   -7.817136   -0.634257
