        88
S0: Total Energy = -4497.85821087
 C          6.673934   -0.789416    0.108046
 C          6.483901   -2.194157    0.210469
 C          5.128056   -2.529839    0.189380
 C          4.256150   -1.428952    0.073612
 C          2.908517   -1.843885    0.069791
 C          2.764948   -3.232071    0.175561
 C          1.389210   -3.525097    0.120137
 C          0.705982   -4.782071    0.083242
 C         -0.705923   -4.782057   -0.083537
 S          5.113063    0.076183   -0.003999
 S          4.282519   -4.086486    0.291587
 C         -6.673933   -0.789434   -0.107700
 C         -6.483895   -2.194138   -0.210564
 C         -5.128064   -2.529860   -0.189162
 C         -4.256182   -1.429021   -0.072758
 C         -2.908550   -1.843946   -0.068884
 C         -2.764941   -3.232081   -0.175244
 C         -1.389199   -3.525093   -0.119852
 C         -0.713118   -2.271638   -0.012983
 C          0.713087   -2.271621    0.013867
 S         -5.113088    0.076096    0.005213
 S         -4.282491   -4.086460   -0.291882
 C          7.969003   -0.229501    0.096999
 C          8.474363    1.059580    0.015312
 C          7.679738    2.301722   -0.067100
 O          6.457524    2.415470   -0.095073
 C          8.642183    3.425023   -0.107690
 C          8.357136    4.782261   -0.180604
 C          9.434635    5.655261   -0.204419
 C         10.747689    5.168874   -0.156148
 C         11.030727    3.810432   -0.084192
 C          9.952037    2.918562   -0.059443
 C          9.887488    1.434095    0.009937
 C         11.002738    0.609683    0.048742
 C         12.344232    1.098878    0.039725
 N         13.456383    1.447397    0.035394
 C         10.957274   -0.816059    0.095587
 N         10.980550   -1.981283    0.132930
 H          8.719176   -1.006855    0.172703
 H          7.337878    5.151395   -0.217367
 F          9.246695    6.979287   -0.273436
 F         11.750379    6.057240   -0.181108
 H         12.068011    3.507415   -0.049959
 C         -7.969003   -0.229515   -0.097025
 C         -8.474377    1.059539   -0.015059
 C         -7.679759    2.301638    0.068052
 O         -6.457557    2.415337    0.096785
 C         -8.642192    3.424970    0.108150
 C         -8.357150    4.782195    0.181317
 C         -9.434636    5.655231    0.204411
 C        -10.747673    5.168895    0.155182
 C        -11.030709    3.810465    0.082996
 C         -9.952033    2.918558    0.058988
 C         -9.887495    1.434092   -0.010355
 C        -11.002742    0.609693   -0.049526
 C        -12.344234    1.098905   -0.041308
 N        -13.456381    1.447446   -0.037651
 C        -10.957260   -0.816063   -0.096030
 N        -10.980481   -1.981297   -0.133070
 H         -8.719142   -1.006836   -0.173398
 H         -7.337906    5.151296    0.218805
 F         -9.246698    6.979249    0.273600
 F        -11.750346    6.057299    0.179435
 H        -12.067979    3.507484    0.048006
 N         -1.660248   -1.253888    0.042712
 N          1.660180   -1.253808   -0.041412
 N          1.404821   -5.934401    0.169153
 N         -1.404715   -5.934373   -0.170014
 C          1.491039    0.124911   -0.496683
 H          2.381040    0.415475   -1.058430
 H          0.637694    0.189600   -1.171807
 H          1.359795    0.819890    0.337124
 C         -1.491200    0.124672    0.498477
 H         -1.360108    0.819970   -0.335093
 H         -2.381174    0.414937    1.060425
 H         -0.637789    0.189191    1.173525
 C         -7.591764   -3.204610   -0.335007
 H         -8.313843   -3.122606    0.483829
 H         -8.147875   -3.076132   -1.270535
 H         -7.190379   -4.221301   -0.323999
 C          7.591748   -3.204709    0.334425
 H          8.314274   -3.121891   -0.483926
 H          8.147331   -3.077136    1.270397
 H          7.190401   -4.221402    0.322185
 C         -0.699337   -7.057150   -0.086277
 C          0.699488   -7.057165    0.084861
 H         -1.245365   -7.995179   -0.154702
 H          1.245553   -7.995205    0.152821
        88
T1: Total Energy = -4497.81211314
 C          6.661572   -0.790384    0.108181
 C          6.461861   -2.207283    0.203750
 C          5.112831   -2.531149    0.180337
 C          4.236501   -1.424306    0.070367
 C          2.901240   -1.827951    0.063954
 C          2.747188   -3.237731    0.159616
 C          1.391200   -3.523950    0.098893
 C          0.705096   -4.787018    0.071156
 C         -0.705032   -4.787007   -0.071553
 S          5.111316    0.085882    0.005891
 S          4.265098   -4.094835    0.272409
 C         -6.661522   -0.790377   -0.108000
 C         -6.461804   -2.207262   -0.203766
 C         -5.112776   -2.531132   -0.180344
 C         -4.236451   -1.424306   -0.070160
 C         -2.901189   -1.827949   -0.063803
 C         -2.747131   -3.237712   -0.159712
 C         -1.391142   -3.523936   -0.099049
 C         -0.700667   -2.256284   -0.001869
 C          0.700719   -2.256282    0.001960
 S         -5.111272    0.085867   -0.005414
 S         -4.265037   -4.094800   -0.272671
 C          7.959407   -0.240783    0.091096
 C          8.467641    1.056505    0.016222
 C          7.670357    2.303389   -0.021099
 O          6.447370    2.413246   -0.027133
 C          8.629438    3.428611   -0.044803
 C          8.344919    4.786723   -0.072371
 C          9.423567    5.660558   -0.087624
 C         10.734419    5.170604   -0.075925
 C         11.017294    3.808602   -0.050282
 C          9.939176    2.917416   -0.034170
 C          9.871252    1.431720   -0.011147
 C         10.990886    0.599362   -0.032265
 C         12.330207    1.087959   -0.048466
 N         13.442750    1.438248   -0.060441
 C         10.946494   -0.825020   -0.055479
 N         10.976172   -1.991351   -0.079928
 H          8.708714   -1.019182    0.152255
 H          7.325743    5.157928   -0.081401
 F          9.234856    6.987461   -0.113233
 F         11.739964    6.056822   -0.090236
 H         12.054641    3.503892   -0.042642
 C         -7.959364   -0.240786   -0.091002
 C         -8.467636    1.056486   -0.016052
 C         -7.670391    2.303391    0.021446
 O         -6.447408    2.413290    0.027458
 C         -8.629504    3.428589    0.044989
 C         -8.345028    4.786710    0.072548
 C         -9.423703    5.660514    0.087654
 C        -10.734540    5.170522    0.075813
 C        -11.017372    3.808511    0.050174
 C         -9.939226    2.917358    0.034211
 C         -9.871260    1.431666    0.011198
 C        -10.990886    0.599293    0.032223
 C        -12.330210    1.087887    0.048312
 N        -13.442749    1.438193    0.060195
 C        -10.946491   -0.825087    0.055476
 N        -10.976196   -1.991418    0.079943
 H         -8.708651   -1.019188   -0.152346
 H         -7.325864    5.157944    0.081693
 F         -9.235033    6.987423    0.113253
 F        -11.740112    6.056712    0.089972
 H        -12.054709    3.503769    0.042410
 N         -1.660303   -1.236725    0.045257
 N          1.660350   -1.236710   -0.044984
 N          1.406220   -5.934639    0.147901
 N         -1.406152   -5.934617   -0.148510
 C          1.494031    0.143241   -0.499458
 H          2.388620    0.435002   -1.053156
 H          0.645886    0.207535   -1.181307
 H          1.355125    0.835234    0.335349
 C         -1.493991    0.143149    0.499969
 H         -1.355094    0.835287   -0.334718
 H         -2.388582    0.434806    1.053718
 H         -0.645843    0.207330    1.181826
 C         -7.574391   -3.211588   -0.321971
 H         -8.284024   -3.134747    0.508829
 H         -8.145418   -3.071455   -1.247194
 H         -7.177679   -4.230470   -0.327616
 C          7.574454   -3.211632    0.321710
 H          8.284037   -3.134642   -0.509119
 H          8.145536   -3.071667    1.246924
 H          7.177741   -4.230514    0.327194
 C         -0.699445   -7.060235   -0.075909
 C          0.699516   -7.060247    0.075092
 H         -1.247825   -7.996909   -0.137232
 H          1.247900   -7.996929    0.136241
        88
S1: Total Energy = -4497.79631709
 C          6.663198   -0.793341    0.099928
 C          6.469830   -2.201854    0.194843
 C          5.113976   -2.530800    0.173232
 C          4.242386   -1.427162    0.063885
 C          2.900509   -1.835137    0.060748
 C          2.750533   -3.239527    0.158962
 C          1.390789   -3.527516    0.100287
 C          0.705279   -4.789210    0.072276
 C         -0.705333   -4.789211   -0.072401
 S          5.111842    0.081128   -0.002524
 S          4.269821   -4.093755    0.269380
 C         -6.663300   -0.793410   -0.099867
 C         -6.469915   -2.201911   -0.194917
 C         -5.114057   -2.530845   -0.173240
 C         -4.242485   -1.427209   -0.063720
 C         -2.900604   -1.835168   -0.060574
 C         -2.750607   -3.239545   -0.158942
 C         -1.390860   -3.527523   -0.100266
 C         -0.702367   -2.261204   -0.002594
 C          0.702277   -2.261195    0.002772
 S         -5.111962    0.081062    0.002810
 S         -4.269880   -4.093779   -0.269511
 C          7.966033   -0.236220    0.082408
 C          8.469331    1.055535    0.010472
 C          7.669067    2.301669   -0.026396
 O          6.445759    2.408006   -0.036426
 C          8.626092    3.427143   -0.043514
 C          8.338788    4.784602   -0.067621
 C          9.415440    5.661211   -0.077045
 C         10.728123    5.173825   -0.063206
 C         11.014986    3.813380   -0.041182
 C          9.938562    2.917247   -0.030884
 C          9.878007    1.436660   -0.013140
 C         10.998162    0.604103   -0.035486
 C         12.336906    1.093153   -0.048148
 N         13.449290    1.445325   -0.057294
 C         10.953304   -0.819510   -0.064246
 N         10.979957   -1.986303   -0.092893
 H          8.715806   -1.014736    0.141534
 H          7.318699    5.153294   -0.078466
 F          9.224057    6.987761   -0.098990
 F         11.730580    6.063450   -0.071842
 H         12.053005    3.510967   -0.031660
 C         -7.966126   -0.236270   -0.082447
 C         -8.469364    1.055502   -0.010431
 C         -7.669003    2.301564    0.026724
 O         -6.445688    2.407793    0.036926
 C         -8.625938    3.427115    0.043773
 C         -8.338527    4.784548    0.068060
 C         -9.415109    5.661244    0.077393
 C        -10.727830    5.173967    0.063295
 C        -11.014800    3.813548    0.041090
 C         -9.938448    2.917328    0.030873
 C         -9.878016    1.436736    0.012994
 C        -10.998256    0.604284    0.035067
 C        -12.336953    1.093471    0.047463
 N        -13.449303    1.445756    0.056366
 C        -10.953557   -0.819335    0.063761
 N        -10.980389   -1.986125    0.092380
 H         -8.715918   -1.014753   -0.141755
 H         -7.318410    5.153155    0.079112
 F         -9.223621    6.987777    0.099502
 F        -11.730216    6.063673    0.071859
 H        -12.052842    3.511220    0.031369
 N         -1.660601   -1.242817    0.047646
 N          1.660497   -1.242789   -0.047367
 N          1.406358   -5.937473    0.149810
 N         -1.406395   -5.937474   -0.150084
 C          1.494567    0.139801   -0.494599
 H          2.390223    0.434376   -1.044807
 H          0.648030    0.207314   -1.177960
 H          1.354213    0.826807    0.343920
 C         -1.494702    0.139721    0.495052
 H         -1.354354    0.826833   -0.343382
 H         -2.390368    0.434211    1.045289
 H         -0.648170    0.207165    1.178426
 C         -7.579266   -3.210608   -0.314636
 H         -8.305493   -3.119847    0.499820
 H         -8.131186   -3.089946   -1.254092
 H         -7.180864   -4.228605   -0.292558
 C          7.579207   -3.210548    0.314355
 H          8.305294   -3.119762   -0.500225
 H          8.131289   -3.089901    1.253717
 H          7.180810   -4.228547    0.292324
 C         -0.699712   -7.062544   -0.076531
 C          0.699691   -7.062544    0.076112
 H         -1.247707   -7.999429   -0.138350
 H          1.247700   -7.999429    0.137811
