        94
S0: Total Energy = -4651.50412453
 C          8.638342   -3.880697   -0.122011
 C          8.352665   -5.237254   -0.203773
 H          7.333254   -5.605583   -0.244326
 C          9.429738   -6.110742   -0.231467
 C         10.742912   -5.625413   -0.178246
 C         11.026580   -4.267539   -0.097427
 H         12.063982   -3.965314   -0.059792
 C          9.948385   -3.375270   -0.068718
 C          9.884348   -1.891109    0.009693
 C          8.471712   -1.516049    0.015577
 N         10.979348    1.522909    0.154252
 N         13.453335   -1.906540    0.039280
 N          1.658678    0.804857   -0.042355
 N         -1.658691    0.804873    0.042750
 O          6.454227   -2.869904   -0.106106
 O         -6.454252   -2.869848    0.106542
 S          5.110976   -0.530825   -0.002960
 S          4.281690    3.631455    0.316185
 S         -4.281674    3.631484   -0.315967
 S         -5.110970   -0.530780    0.003377
 N         -1.410217    5.468408   -0.189554
 N          1.410267    5.468397    0.189790
 N        -10.979348    1.522834   -0.156588
 N        -13.453333   -1.906600   -0.041211
 C          7.676552   -2.756955   -0.075756
 C         11.000178   -1.067513    0.054752
 C         10.955473    0.357914    0.110047
 C          7.966704   -0.226940    0.104994
 H          8.717202    0.549462    0.187079
 C          6.672282    0.333325    0.117535
 C          4.254687    0.974253    0.082287
 C          5.127112    2.074243    0.206890
 C          6.482300    1.737813    0.228513
 C         12.341352   -1.557413    0.044381
 C          2.908136    1.390352    0.078086
 C          0.714900    1.823076    0.017298
 C          1.390571    3.072883    0.133600
 C          2.764295    2.778940    0.191951
 C          1.488265   -0.572027   -0.503831
 H          1.364618   -1.271102    0.327606
 H          2.374794   -0.857502   -1.073611
 C         -0.714906    1.823081   -0.016881
 C         -2.908144    1.390392   -0.077659
 C         -2.764287    2.778974   -0.191567
 C         -1.390554    3.072897   -0.133259
 C         -0.715020    4.340450   -0.094028
 C          0.715057    4.340445    0.094303
 C         -1.488319   -0.571956    0.504431
 H         -1.364747   -1.271159   -0.326911
 H         -2.374839   -0.857303    1.074290
 C         -4.254687    0.974287   -0.081951
 C         -5.127113    2.074282   -0.206588
 C         -6.672272    0.333349   -0.117298
 C         -6.482292    1.737849   -0.228253
 C         -0.713273    6.627315   -0.097404
 C          0.713339    6.627309    0.097601
 C         -7.966689   -0.226911   -0.105001
 H         -8.717170    0.549503   -0.187125
 C         -8.471722   -1.516027   -0.015756
 C         -7.676572   -2.756913    0.075905
 C         -8.638364   -3.880653    0.122194
 C         -9.948394   -3.375246    0.068488
 C         -9.884350   -1.891103   -0.010251
 C         -1.399784    7.868544   -0.192702
 H         -2.475087    7.845828   -0.340506
 C         -0.704373    9.050811   -0.097260
 C          0.704473    9.050805    0.097361
 C          1.399868    7.868533    0.192849
 H          2.475171    7.845807    0.340653
 C         -8.352697   -5.237193    0.204333
 H         -7.333294   -5.605506    0.245193
 C         -9.429774   -6.110675    0.231992
 C        -10.742940   -5.625363    0.178366
 C        -11.026595   -4.267512    0.097158
 H        -12.063988   -3.965294    0.059232
 C        -11.000185   -1.067545   -0.056002
 C        -10.955486    0.357857   -0.111873
 C        -12.341348   -1.557475   -0.045995
 C         -7.590806    2.746721   -0.359685
 H         -8.149258    2.609257   -1.292495
 H         -7.189850    3.763638   -0.359118
 C          7.590788    2.746708    0.359993
 H          8.148409    2.609931    1.293410
 H          7.189909    3.763654    0.358275
 H         -8.310803    2.671940    0.461727
 H          8.311496    2.671233   -0.460722
 H          0.630027   -0.633945   -1.172700
 H         -0.630048   -0.633814    1.173261
 F        -11.745278   -6.514091    0.207370
 F         -9.241128   -7.434177    0.309849
 F          9.241076   -7.434260   -0.308993
 F         11.745251   -6.514139   -0.207257
 H         -1.231316    9.997743   -0.170214
 H          1.231429    9.997733    0.170279
        94
T1: Total Energy = -4651.45969014
 C          8.631152   -3.882163   -0.076357
 C          8.347302   -5.239764   -0.126812
 H          7.328309   -5.610998   -0.147578
 C          9.426332   -6.112921   -0.149547
 C         10.736946   -5.622927   -0.122513
 C         11.019088   -4.261470   -0.073460
 H         12.056262   -3.956631   -0.055028
 C          9.940543   -3.370946   -0.049681
 C          9.871799   -1.885648   -0.002536
 C          8.467441   -1.511519    0.016960
 N         10.978133    1.537536    0.017985
 N         13.443683   -1.891848   -0.015387
 N          1.658407    0.781676   -0.046083
 N         -1.658403    0.781672    0.046000
 O          6.448358   -2.868656   -0.055383
 O         -6.448357   -2.868649    0.055436
 S          5.109781   -0.542322    0.003391
 S          4.263768    3.637806    0.283206
 S         -4.263773    3.637812   -0.283141
 S         -5.109777   -0.542327   -0.003461
 N         -1.413944    5.465114   -0.158277
 N          1.413939    5.465110    0.158375
 N        -10.978147    1.537524   -0.018546
 N        -13.443683   -1.891873    0.015135
 C          7.671281   -2.757694   -0.041457
 C         10.991404   -1.053668    0.004947
 C         10.947735    0.370994    0.014224
 C          7.958048   -0.215226    0.097143
 H          8.706624    0.563321    0.165353
 C          6.660241    0.334072    0.111557
 C          4.234903    0.967279    0.073832
 C          5.111431    2.074281    0.188002
 C          6.460273    1.750085    0.211591
 C         12.330976   -1.542073   -0.007481
 C          2.900396    1.371223    0.066924
 C          0.700376    1.801523    0.002434
 C          1.392744    3.069231    0.103940
 C          2.746149    2.781090    0.166259
 C          1.491201   -0.595914   -0.507762
 H          1.356972   -1.292687    0.323824
 H          2.383423   -0.883545   -1.067471
 C         -0.700374    1.801522   -0.002486
 C         -2.900395    1.371222   -0.066968
 C         -2.746151    2.781093   -0.166250
 C         -1.392746    3.069233   -0.103931
 C         -0.715547    4.341671   -0.076824
 C          0.715544    4.341669    0.076881
 C         -1.491190   -0.595936    0.507623
 H         -1.356950   -1.292673   -0.323993
 H         -2.383411   -0.883598    1.067317
 C         -4.234902    0.967277   -0.073867
 C         -5.111433    2.074282   -0.187985
 C         -6.660240    0.334070   -0.111555
 C         -6.460275    1.750085   -0.211558
 C         -0.714740    6.627448   -0.082214
 C          0.714733    6.627446    0.082355
 C         -7.958047   -0.215225   -0.097132
 H         -8.706622    0.563327   -0.165299
 C         -8.467442   -1.511519   -0.016984
 C         -7.671280   -2.757690    0.041485
 C         -8.631148   -3.882160    0.076414
 C         -9.940540   -3.370947    0.049696
 C         -9.871800   -1.885652    0.002463
 C         -1.403562    7.865546   -0.163203
 H         -2.481617    7.843206   -0.288062
 C         -0.705224    9.049402   -0.082241
 C          0.705213    9.049400    0.082472
 C          1.403553    7.865542    0.163389
 H          2.481608    7.843199    0.288247
 C         -8.347295   -5.239758    0.126936
 H         -7.328301   -5.610988    0.147731
 C         -9.426322   -6.112916    0.149706
 C        -10.736938   -5.622928    0.122640
 C        -11.019083   -4.261473    0.073513
 H        -12.056257   -3.956638    0.055057
 C        -10.991409   -1.053680   -0.005160
 C        -10.947750    0.370982   -0.014599
 C        -12.330979   -1.542090    0.007251
 C         -7.572646    2.754486   -0.332690
 H         -8.148767    2.607507   -1.253542
 H         -7.175090    3.772927   -0.348413
 C          7.572637    2.754486    0.332798
 H          8.148610    2.607581    1.253757
 H          7.175087    3.772931    0.348371
 H         -8.277925    2.684799    0.502482
 H          8.278046    2.684723   -0.502255
 H          0.639608   -0.656783   -1.185572
 H         -0.639600   -0.656827    1.185435
 F        -11.742896   -6.508585    0.145414
 F         -9.238237   -7.439286    0.197542
 F          9.238249   -7.439293   -0.197316
 F         11.742906   -6.508584   -0.145247
 H         -1.234072    9.995883   -0.144064
 H          1.234059    9.995880    0.144329
        94
S1: Total Energy = -4651.44385231
 C          8.625388   -3.882650   -0.062124
 C          8.338188   -5.239847   -0.098519
 H          7.318132   -5.608435   -0.114665
 C          9.414933   -6.116286   -0.113284
 C         10.727505   -5.629101   -0.092498
 C         11.014144   -4.268810   -0.058018
 H         12.052123   -3.966466   -0.043691
 C          9.937655   -3.373041   -0.042252
 C          9.876576   -1.892157   -0.011602
 C          8.468032   -1.511695    0.010615
 N         10.980454    1.530838   -0.053733
 N         13.448071   -1.901577   -0.042020
 N          1.658204    0.791165   -0.047131
 N         -1.658215    0.791166    0.047334
 O          6.444857   -2.864167   -0.050378
 O         -6.444834   -2.864144    0.050506
 S          5.110057   -0.536404   -0.001867
 S          4.269973    3.637672    0.286171
 S         -4.269977    3.637665   -0.286117
 S         -5.110064   -0.536403    0.002035
 N         -1.413566    5.469525   -0.164086
 N          1.413563    5.469529    0.164110
 N        -10.980757    1.530777    0.053473
 N        -13.448166   -1.901362    0.041621
 C          7.668132   -2.757197   -0.037540
 C         10.996976   -1.060076   -0.021977
 C         10.952957    0.363878   -0.036777
 C          7.964413   -0.220012    0.088919
 H          8.714317    0.557936    0.153911
 C          6.662495    0.337201    0.106716
 C          4.241430    0.971851    0.070483
 C          5.113733    2.075101    0.185618
 C          6.469182    1.745281    0.207678
 C         12.335737   -1.549328   -0.034036
 C          2.900365    1.381051    0.066841
 C          0.703164    1.809630    0.004962
 C          1.392204    3.074466    0.108924
 C          2.750787    2.784330    0.170099
 C          1.491456   -0.588869   -0.502477
 H          1.357618   -1.281455    0.332502
 H          2.384141   -0.878187   -1.060315
 C         -0.703174    1.809632   -0.004775
 C         -2.900375    1.381052   -0.066683
 C         -2.750793    2.784327   -0.169984
 C         -1.392211    3.074464   -0.108798
 C         -0.715480    4.344928   -0.079935
 C          0.715475    4.344930    0.080010
 C         -1.491491   -0.588822    0.502841
 H         -1.357663   -1.281504   -0.332060
 H         -2.384182   -0.878061    1.060711
 C         -4.241438    0.971852   -0.070340
 C         -5.113740    2.075097   -0.185548
 C         -6.662498    0.337191   -0.106680
 C         -6.469184    1.745270   -0.207677
 C         -0.714744    6.630794   -0.085091
 C          0.714743    6.630796    0.085064
 C         -7.964415   -0.220024   -0.088942
 H         -8.714316    0.557922   -0.153977
 C         -8.468028   -1.511710   -0.010664
 C         -7.668110   -2.757198    0.037560
 C         -8.625349   -3.882665    0.062141
 C         -9.937624   -3.373080    0.042146
 C         -9.876570   -1.892194    0.011455
 C         -1.403051    7.869419   -0.168670
 H         -2.480618    7.847199   -0.297642
 C         -0.704987    9.053196   -0.085098
 C          0.704992    9.053198    0.084960
 C          1.403053    7.869424    0.168587
 H          2.480620    7.847207    0.297559
 C         -8.338126   -5.239855    0.098624
 H         -7.318064   -5.608423    0.114862
 C         -9.414856   -6.116314    0.113348
 C        -10.727435   -5.629154    0.092437
 C        -11.014097   -4.268869    0.057874
 H        -12.052080   -3.966546    0.043460
 C        -10.996986   -1.060131    0.021702
 C        -10.952997    0.363824    0.036486
 C        -12.335740   -1.549410    0.033580
 C         -7.578659    2.753224   -0.332903
 H         -8.130434    2.627626   -1.271768
 H         -7.180346    3.771353   -0.315982
 C          7.578651    2.753253    0.332811
 H          8.130311    2.627857    1.271773
 H          7.180348    3.771381    0.315618
 H         -8.305007    2.666537    0.481889
 H          8.305096    2.666386   -0.481874
 H          0.640509   -0.652928   -1.180567
 H         -0.640544   -0.652816    1.180935
 F        -11.730044   -6.518612    0.106736
 F         -9.223509   -7.442622    0.147319
 F          9.223608   -7.442599   -0.147177
 F         11.730130   -6.518541   -0.106832
 H         -1.233538    9.999692   -0.148947
 H          1.233545    9.999696    0.148766
