        94
S0: Total Energy = -4849.96270239
 C          8.634245   -4.188235   -0.122167
 C          8.347134   -5.544628   -0.202596
 H          7.327369   -5.911932   -0.243332
 C          9.423241   -6.419256   -0.228677
 C         10.737026   -5.935283   -0.175228
 C         11.022144   -4.577703   -0.095765
 H         12.059853   -4.276578   -0.057861
 C          9.944870   -3.684186   -0.068675
 C          9.882727   -2.200050    0.008093
 C          8.470061   -1.823231    0.012979
 N         10.979655    1.213059    0.149504
 N         13.451412   -2.218914    0.039202
 N          1.658654    0.501661   -0.044636
 N         -1.658653    0.501666    0.044669
 O          6.451223   -3.174993   -0.108588
 O         -6.451256   -3.174948    0.109052
 S          5.110397   -0.835750   -0.006815
 S          4.283611    3.326528    0.311703
 S         -4.283602    3.326558   -0.311539
 S         -5.110373   -0.835749    0.006681
 N         -1.410192    5.164452   -0.186426
 N          1.410224    5.164424    0.186866
 N        -10.979659    1.212998   -0.151984
 N        -13.451416   -2.218935   -0.041049
 C          7.673624   -3.063655   -0.077645
 C         10.999021   -1.377511    0.052728
 C         10.955314    0.048065    0.106479
 C          7.966484   -0.534060    0.101137
 H          8.717459    0.241911    0.182725
 C          6.671960    0.027474    0.113087
 C          4.255103    0.669765    0.078212
 C          5.127951    1.768937    0.201996
 C          6.483402    1.431747    0.223345
 C         12.339829   -1.868641    0.043452
 C          2.908422    1.086929    0.074923
 C          0.714909    1.519226    0.016188
 C          1.391172    2.769094    0.131872
 C          2.765526    2.475158    0.188891
 C          1.488168   -0.875950   -0.504307
 H          1.366338   -1.573975    0.328238
 H          2.374001   -1.161391   -1.075132
 C         -0.714906    1.519228   -0.016084
 C         -2.908423    1.086958   -0.074772
 C         -2.765524    2.475194   -0.188624
 C         -1.391159    2.769118   -0.131634
 C         -0.714951    4.034859   -0.092610
 C          0.714975    4.034846    0.092951
 C         -1.488168   -0.875977    0.504263
 H         -1.366342   -1.573955   -0.328324
 H         -2.374000   -1.161442    1.075078
 C         -4.255093    0.669774   -0.078292
 C         -5.127945    1.768950   -0.202051
 C         -6.671940    0.027466   -0.113217
 C         -6.483387    1.431748   -0.223458
 C         -0.713981    6.320447   -0.095568
 C          0.714027    6.320432    0.096091
 C         -7.966466   -0.534054   -0.101409
 H         -8.717425    0.241927   -0.183077
 C         -8.470072   -1.823220   -0.013278
 C         -7.673651   -3.063619    0.077827
 C         -8.634277   -4.188185    0.122499
 C         -9.944892   -3.684158    0.068559
 C         -9.882736   -2.200044   -0.008702
 C         -1.407720    7.558768   -0.189682
 H         -2.482006    7.565467   -0.334193
 C         -0.704430    8.726405   -0.094846
 C          0.704500    8.726391    0.095554
 C          1.407778    7.558740    0.190300
 H          2.482064    7.565415    0.334811
 C         -8.347180   -5.544551    0.203468
 H         -7.327423   -5.911839    0.244531
 C         -9.423293   -6.419168    0.229643
 C        -10.737066   -5.935216    0.175755
 C        -11.022172   -4.577666    0.095746
 H        -12.059872   -4.276555    0.057519
 C        -10.999026   -1.377530   -0.054066
 C        -10.955302    0.048023   -0.108458
 C        -12.339834   -1.868658   -0.045055
 C         -7.592424    2.440133   -0.354365
 H         -8.149143    2.304412   -1.288472
 H         -7.192277    3.457366   -0.350860
 C          7.592393    2.440163    0.354409
 H          8.148189    2.305156    1.289176
 H          7.192311    3.457419    0.349698
 H         -8.313731    2.363080    0.465652
 H          8.314494    2.362419   -0.464833
 H          0.629003   -0.938987   -1.171791
 H         -0.629010   -0.939071    1.171753
 F         -1.316154    9.917341   -0.177517
 F          1.316236    9.917315    0.178308
 F        -11.738277   -6.825080    0.203301
 F         -9.233348   -7.742443    0.306275
 F          9.233282   -7.742558   -0.304801
 F         11.738234   -6.825152   -0.202652
        94
T1: Total Energy = -4849.91771916
 C          8.629907   -4.188586   -0.077565
 C          8.345471   -5.546129   -0.127810
 H          7.326350   -5.916961   -0.149144
 C          9.424104   -6.419701   -0.149554
 C         10.735033   -5.930292   -0.121753
 C         11.017749   -4.568996   -0.072903
 H         12.055050   -4.264641   -0.053833
 C          9.939552   -3.678016   -0.050147
 C          9.871648   -2.192710   -0.003365
 C          8.467170   -1.817872    0.014935
 N         10.978105    1.230025    0.019170
 N         13.443270   -2.200230   -0.013749
 N          1.658737    0.476126   -0.047535
 N         -1.658753    0.476135    0.047857
 O          6.447561   -3.173948   -0.058317
 O         -6.447567   -3.173897    0.058558
 S          5.109984   -0.848302    0.000654
 S          4.264491    3.331981    0.278370
 S         -4.264483    3.332004   -0.278128
 S         -5.109994   -0.848286   -0.000559
 N         -1.413917    5.159199   -0.154771
 N          1.413934    5.159189    0.155134
 N        -10.978221    1.229983   -0.021514
 N        -13.443286   -2.200308    0.012243
 C          7.670518   -3.063878   -0.043598
 C         10.991237   -1.361210    0.005053
 C         10.947814    0.063533    0.014838
 C          7.958225   -0.521505    0.093929
 H          8.706881    0.256993    0.161610
 C          6.660448    0.027891    0.107773
 C          4.235370    0.661502    0.070577
 C          5.112173    1.768351    0.183559
 C          6.460887    1.444276    0.206842
 C         12.330738   -1.850066   -0.006540
 C          2.900903    1.065625    0.064226
 C          0.700382    1.495430    0.001887
 C          1.392934    2.763158    0.102178
 C          2.746977    2.475497    0.163011
 C          1.491405   -0.902245   -0.506955
 H          1.358006   -1.597666    0.325878
 H          2.383277   -1.190472   -1.066887
 C         -0.700391    1.495434   -0.001522
 C         -2.900911    1.065642   -0.063954
 C         -2.746976    2.475514   -0.162708
 C         -1.392934    2.763168   -0.101817
 C         -0.715312    4.034200   -0.075117
 C          0.715320    4.034194    0.075489
 C         -1.491456   -0.902231    0.507309
 H         -1.358071   -1.597674   -0.325508
 H         -2.383337   -1.190424    1.067245
 C         -4.235378    0.661519   -0.070403
 C         -5.112172    1.768371   -0.183415
 C         -6.660451    0.027905   -0.107809
 C         -6.460884    1.444294   -0.206822
 C         -0.715348    6.318688   -0.080238
 C          0.715374    6.318683    0.080592
 C         -7.958228   -0.521493   -0.094168
 H         -8.706874    0.257004   -0.161969
 C         -8.467181   -1.817860   -0.015224
 C         -7.670523   -3.063845    0.043659
 C         -8.629902   -4.188557    0.077745
 C         -9.939549   -3.678012    0.049999
 C         -9.871659   -2.192716    0.002816
 C         -1.411220    7.553925   -0.159831
 H         -2.488306    7.560832   -0.281190
 C         -0.705459    8.723410   -0.079982
 C          0.705505    8.723405    0.080316
 C          1.411256    7.553915    0.160175
 H          2.488342    7.560814    0.281534
 C         -8.345455   -5.546083    0.128381
 H         -7.326332   -5.916895    0.149957
 C         -9.424078   -6.419664    0.150201
 C        -10.735009   -5.930279    0.122092
 C        -11.017736   -4.569000    0.072834
 H        -12.055040   -4.264666    0.053540
 C        -10.991264   -1.361245   -0.006224
 C        -10.947880    0.063494   -0.016613
 C        -12.330758   -1.850125    0.005181
 C         -7.573466    2.448485   -0.327088
 H         -8.149297    2.302286   -1.248235
 H         -7.176299    3.467086   -0.341599
 C          7.573474    2.448469    0.327065
 H          8.149216    2.302375    1.248287
 H          7.176319    3.467076    0.341419
 H         -8.278846    2.377623    0.507878
 H          8.278931    2.377498   -0.507825
 H          0.639384   -0.964289   -1.184078
 H         -0.639438   -0.964280    1.184434
 F         -1.320014    9.912138   -0.149812
 F          1.320069    9.912129    0.150135
 F        -11.740411   -6.816389    0.143973
 F         -9.235515   -7.745827    0.198084
 F          9.235552   -7.745880   -0.197059
 F         11.740442   -6.816395   -0.143530
        94
S1: Total Energy = -4849.90188056
 C          8.624887   -4.188982   -0.059006
 C          8.337453   -5.546270   -0.091704
 H          7.317370   -5.914811   -0.106707
 C          9.414066   -6.422837   -0.104245
 C         10.726793   -5.935819   -0.084939
 C         11.013610   -4.575473   -0.054202
 H         12.051635   -4.273256   -0.040810
 C          9.937246   -3.679642   -0.040725
 C          9.876486   -2.198526   -0.014089
 C          8.467908   -1.817837    0.007994
 N         10.979225    1.224182   -0.066764
 N         13.447717   -2.208269   -0.047215
 N          1.658594    0.484328   -0.048947
 N         -1.658696    0.484357    0.049481
 O          6.444541   -3.169928   -0.049597
 O         -6.444477   -3.169750    0.050049
 S          5.110325   -0.842960   -0.004848
 S          4.270074    3.331498    0.279323
 S         -4.270129    3.331521   -0.279240
 S         -5.110433   -0.842895    0.005406
 N         -1.413772    5.162878   -0.159672
 N          1.413742    5.162877    0.159626
 N        -10.979501    1.224021    0.066978
 N        -13.447771   -2.208448    0.046601
 C          7.667832   -3.063444   -0.037155
 C         10.996632   -1.366661   -0.027601
 C         10.952322    0.057320   -0.046443
 C          7.964486   -0.526028    0.084126
 H          8.714344    0.252084    0.147299
 C          6.662448    0.030952    0.101834
 C          4.241549    0.665366    0.066206
 C          5.114026    1.768806    0.179599
 C          6.469281    1.439440    0.201279
 C         12.335449   -1.856000   -0.039303
 C          2.900680    1.074357    0.063170
 C          0.702916    1.502334    0.003962
 C          1.392242    2.767534    0.106038
 C          2.751148    2.478051    0.165365
 C          1.491731   -0.896595   -0.501687
 H          1.358208   -1.587535    0.334684
 H          2.384272   -1.186838   -1.059241
 C         -0.703004    1.502345   -0.003519
 C         -2.900771    1.074391   -0.062753
 C         -2.751218    2.478070   -0.165115
 C         -1.392310    2.767542   -0.105764
 C         -0.715238    4.036798   -0.077795
 C          0.715190    4.036797    0.077903
 C         -1.491882   -0.896498    0.502450
 H         -1.358374   -1.587578   -0.333809
 H         -2.384436   -1.186618    1.060048
 C         -4.241643    0.665415   -0.065787
 C         -5.114104    1.768849   -0.179388
 C         -6.662533    0.031006   -0.101638
 C         -6.469357    1.439485   -0.201187
 C         -0.715496    6.321375   -0.082791
 C          0.715485    6.321375    0.082591
 C         -7.964561   -0.525989   -0.084082
 H         -8.714433    0.252095   -0.147445
 C         -8.467931   -1.817813   -0.007935
 C         -7.667774   -3.063365    0.037252
 C         -8.624756   -4.188968    0.058962
 C         -9.937148   -3.679718    0.040460
 C         -9.876489   -2.198597    0.013897
 C         -1.410875    7.557144   -0.164535
 H         -2.487577    7.564183   -0.289239
 C         -0.705325    8.726508   -0.082581
 C          0.705353    8.726508    0.082055
 C          1.410884    7.557143    0.164171
 H          2.487586    7.564181    0.288876
 C         -8.337238   -5.546237    0.091689
 H         -7.317133   -5.914711    0.106855
 C         -9.413794   -6.422877    0.104023
 C        -10.726551   -5.935948    0.084504
 C        -11.013454   -4.575621    0.053751
 H        -12.051497   -4.273469    0.040196
 C        -10.996699   -1.366817    0.027345
 C        -10.952501    0.057164    0.046458
 C        -12.335475   -1.856269    0.038778
 C         -7.578951    2.447419   -0.324992
 H         -8.131187    2.322395   -1.263648
 H         -7.180829    3.465602   -0.307544
 C          7.578876    2.447401    0.324845
 H          8.130915    2.322780    1.263674
 H          7.180778    3.465584    0.306865
 H         -8.304756    2.359987    0.490191
 H          8.304845    2.359601   -0.490148
 H          0.640661   -0.961887   -1.179474
 H         -0.640818   -0.961707    1.180251
 F         -1.319472    9.915285   -0.154344
 F          1.319521    9.915284    0.153657
 F        -11.728852   -6.825580    0.096334
 F         -9.222246   -7.749101    0.134283
 F          9.222602   -7.749074   -0.134510
 F         11.729152   -6.825383   -0.096955
