        94
S0: Total Energy = -6291.41299726
 C          8.629261   -3.738121   -0.097398
 C          8.347961   -5.090334   -0.180395
 H          7.323376   -5.443161   -0.223284
 C          9.417478   -5.988180   -0.207020
 C         10.737736   -5.505187   -0.149028
 C         11.007619   -4.133549   -0.066414
 H         12.040271   -3.817723   -0.024779
 C          9.939168   -3.236389   -0.040394
 C          9.878553   -1.750625    0.038467
 C          8.466507   -1.374433    0.040320
 N         10.975550    1.660878    0.187849
 N         13.448150   -1.770353    0.077965
 N          1.658275    0.952707   -0.039365
 N         -1.658235    0.952711    0.039610
 O          6.445873   -2.723243   -0.086785
 O         -6.445888   -2.723272    0.086953
 S          5.107673   -0.385202    0.011150
 S          4.281782    3.778121    0.327146
 S         -4.281725    3.778065   -0.327513
 S         -5.107627   -0.385212   -0.010926
 N         -1.409466    5.615811   -0.192075
 N          1.409492    5.615836    0.191886
 N        -10.975456    1.661003   -0.186341
 N        -13.448153   -1.770189   -0.076996
 C          7.668030   -2.611962   -0.053295
 C         10.995649   -0.929544    0.086918
 C         10.952165    0.495971    0.142882
 C          7.962655   -0.083419    0.128116
 H          8.714018    0.691855    0.212529
 C          6.669612    0.477538    0.136306
 C          4.253516    1.120660    0.093132
 C          5.126468    2.220342    0.220348
 C          6.480903    1.883137    0.246335
 C         12.336256   -1.421140    0.080062
 C          2.907517    1.537878    0.084730
 C          0.714773    1.970391    0.018567
 C          1.390626    3.220478    0.136653
 C          2.764399    2.926565    0.198399
 C          1.489097   -0.424570   -0.501153
 H          1.365158   -1.123384    0.330360
 H          2.376431   -0.709191   -1.070028
 C         -0.714740    1.970382   -0.018362
 C         -2.907472    1.537858   -0.084704
 C         -2.764349    2.926533   -0.198523
 C         -1.390584    3.220460   -0.136679
 C         -0.714464    4.486434   -0.095497
 C          0.714500    4.486448    0.095392
 C         -1.489142   -0.424492    0.501644
 H         -1.365342   -1.123474   -0.329752
 H         -2.376433   -0.708921    1.070686
 C         -4.253466    1.120627   -0.093174
 C         -5.126413    2.220290   -0.220618
 C         -6.669560    0.477497   -0.136367
 C         -6.480844    1.883088   -0.246600
 C         -0.713657    6.771878   -0.098684
 C          0.713672    6.771891    0.098429
 C         -7.962609   -0.083434   -0.128147
 H         -8.713949    0.691838   -0.212753
 C         -8.466496   -1.374422   -0.040140
 C         -7.668047   -2.611969    0.053462
 C         -8.629297   -3.738110    0.097530
 C         -9.939190   -3.236350    0.040492
 C         -9.878547   -1.750577   -0.038172
 C         -1.407084    8.010097   -0.195533
 H         -2.480804    8.016809   -0.344122
 C         -0.704127    9.177732   -0.098085
 C          0.704118    9.177744    0.097701
 C          1.407086    8.010123    0.195207
 H          2.480806    8.016853    0.343798
 C         -8.348030   -5.090344    0.180367
 H         -7.323456   -5.443194    0.223299
 C         -9.417567   -5.988171    0.206772
 C        -10.737807   -5.505148    0.148680
 C        -11.007661   -4.133495    0.066247
 H        -12.040301   -3.817641    0.024507
 C        -10.995630   -0.929451   -0.086193
 C        -10.952104    0.496081   -0.141717
 C        -12.336250   -1.421005   -0.079211
 C         -7.590075    2.890438   -0.381370
 H         -8.144142    2.753207   -1.316828
 H         -7.190739    3.907949   -0.377735
 C          7.590138    2.890516    0.380915
 H          8.143981    2.753669    1.316564
 H          7.190826    3.908035    0.376752
 H         -8.313422    2.813389    0.436859
 H          8.313669    2.813103   -0.437112
 H          0.631751   -0.486741   -1.171025
 H         -0.631737   -0.486619    1.171438
Cl        -12.092680   -6.602759    0.177081
Cl         -9.078783   -7.694209    0.311605
Cl          9.078652   -7.694196   -0.312021
Cl         12.092587   -6.602807   -0.177806
 F         -1.315433   10.368535   -0.183144
 F          1.315410   10.368559    0.182702
        94
T1: Total Energy = -6291.36870974
 C         -8.623255   -3.738950    0.066794
 C         -8.343382   -5.091687    0.124904
 H         -7.319196   -5.447364    0.151276
 C         -9.415147   -5.989215    0.148383
 C        -10.732794   -5.501717    0.112677
 C        -11.001641   -4.126940    0.055510
 H        -12.034139   -3.808889    0.030432
 C         -9.932582   -3.231347    0.032235
 C         -9.867303   -1.745435   -0.021908
 C         -8.463205   -1.369494   -0.035928
 N        -10.976563    1.675450   -0.070772
 N        -13.439983   -1.754916   -0.027789
 N         -1.658329    0.929091    0.043748
 N          1.658316    0.929099   -0.044020
 O         -6.441158   -2.721597    0.049401
 O          6.441186   -2.721601   -0.049836
 S         -5.107379   -0.396654   -0.013716
 S         -4.263867    3.783895   -0.292502
 S          4.263845    3.783893    0.292388
 S          5.107369   -0.396640    0.013404
 N          1.413245    5.612016    0.160185
 N         -1.413272    5.612020   -0.160222
 N         10.976273    1.675497    0.071034
 N         13.439991   -1.754827    0.028928
 C         -7.663854   -2.612261    0.030500
 C        -10.988148   -0.915600   -0.040059
 C        -10.945769    0.509046   -0.058599
 C         -7.955186   -0.071940   -0.116192
 H         -8.704378    0.705591   -0.188190
 C         -6.658016    0.478212   -0.126215
 C         -4.234266    1.113432   -0.082569
 C         -5.111009    2.219889   -0.199122
 C         -6.459456    1.894908   -0.225978
 C        -12.327259   -1.405383   -0.031854
 C         -2.899944    1.518155   -0.072447
 C         -0.700518    1.948542   -0.003752
 C         -1.392666    3.216026   -0.106802
 C         -2.746459    2.928124   -0.171854
 C         -1.492135   -0.449148    0.504804
 H         -1.357697   -1.145143   -0.327294
 H         -2.385008   -0.736378    1.063598
 C          0.700502    1.948544    0.003532
 C          2.899929    1.518160    0.072215
 C          2.746440    2.928123    0.171690
 C          1.392647    3.216025    0.106644
 C          0.714902    4.487114    0.077909
 C         -0.714925    4.487116   -0.078008
 C          1.492129   -0.449115   -0.505151
 H          1.357682   -1.145154    0.326909
 H          2.385008   -0.736315   -1.063952
 C          4.234252    1.113440    0.082331
 C          5.110990    2.219893    0.198958
 C          6.658000    0.478218    0.126043
 C          6.459437    1.894911    0.225850
 C          0.715119    6.771413    0.083096
 C         -0.715150    6.771415   -0.083071
 C          7.955172   -0.071934    0.116138
 H          8.704355    0.705596    0.188249
 C          8.463207   -1.369484    0.035906
 C          7.663878   -2.612255   -0.030718
 C          8.623296   -3.738933   -0.066922
 C          9.932613   -3.231321   -0.032096
 C          9.867310   -1.745412    0.022116
 C          1.410791    8.006640    0.165279
 H          2.487409    8.013580    0.290614
 C          0.705262    9.175989    0.082837
 C         -0.705301    9.175991   -0.082684
 C         -1.410827    8.006644   -0.165188
 H         -2.487444    8.013587   -0.290523
 C          8.343444   -5.091669   -0.125168
 H          7.319267   -5.447353   -0.151747
 C          9.415222   -5.989186   -0.148505
 C         10.732858   -5.501680   -0.112519
 C         11.001684   -4.126904   -0.055217
 H         12.034173   -3.808846   -0.029924
 C         10.988137   -0.915561    0.040537
 C         10.945723    0.509083    0.059195
 C         12.327260   -1.405314    0.032585
 C          7.572463    2.898037    0.349794
 H          8.145417    2.750899    1.272564
 H          7.176126    3.916940    0.363541
 C         -7.572487    2.898040   -0.349833
 H         -8.145489    2.750927   -1.272577
 H         -7.176147    3.916942   -0.363574
 H          8.280064    2.826857   -0.483245
 H         -8.280045    2.826841    0.483240
 H         -0.641347   -0.510612    1.183443
 H          0.641349   -0.510544   -1.183803
Cl         12.091306   -6.595955   -0.137778
Cl          9.077445   -7.698249   -0.221976
Cl         -9.077342   -7.698280    0.221686
Cl        -12.091229   -6.596005    0.138131
 F          1.319262   10.364628    0.154911
 F         -1.319306   10.364632   -0.154695
        94
S1: Total Energy = -6291.35309166
 C         -8.617881   -3.738024    0.074669
 C         -8.334546   -5.089608    0.139010
 H         -7.309335   -5.441976    0.169817
 C         -9.403775   -5.990564    0.163005
 C        -10.723444   -5.506345    0.121533
 C        -10.996815   -4.133654    0.057994
 H        -12.030118   -3.818577    0.028709
 C         -9.929816   -3.232662    0.034048
 C         -9.872381   -1.751930   -0.026151
 C         -8.463638   -1.369523   -0.036127
 N        -10.981540    1.667923   -0.102370
 N        -13.444620   -1.765649   -0.045514
 N         -1.658046    0.938032    0.043614
 N          1.658017    0.938034   -0.043847
 O         -6.437982   -2.716081    0.060402
 O          6.438019   -2.716150   -0.060541
 S         -5.107128   -0.391171   -0.010786
 S         -4.269505    3.783645   -0.298620
 S          4.269473    3.783624    0.298593
 S          5.107098   -0.391179    0.010566
 N          1.412796    5.616436    0.166766
 N         -1.412825    5.616447   -0.166722
 N         10.980868    1.668036    0.102510
 N         13.444637   -1.765365    0.045416
 C         -7.660972   -2.610774    0.037283
 C        -10.993943   -0.922794   -0.053634
 C        -10.952195    0.501179   -0.081722
 C         -7.960884   -0.076834   -0.116614
 H         -8.710858    0.700203   -0.189813
 C         -6.659674    0.480841   -0.126067
 C         -4.240205    1.117605   -0.082571
 C         -5.112884    2.220459   -0.200724
 C         -6.467588    1.889818   -0.227040
 C        -12.332277   -1.413784   -0.047574
 C         -2.899641    1.527451   -0.074358
 C         -0.703020    1.956296   -0.006504
 C         -1.392051    3.221177   -0.112458
 C         -2.750583    2.931232   -0.177488
 C         -1.492465   -0.442318    0.499386
 H         -1.357864   -1.134693   -0.335557
 H         -2.386013   -0.731008    1.056100
 C          0.702990    1.956295    0.006322
 C          2.899611    1.527444    0.074179
 C          2.750553    2.931219    0.177388
 C          1.392022    3.221169    0.112354
 C          0.714760    4.490453    0.081418
 C         -0.714788    4.490458   -0.081448
 C          1.492438   -0.442289   -0.499703
 H          1.357814   -1.134711    0.335197
 H          2.385998   -0.730953   -1.056413
 C          4.240175    1.117596    0.082394
 C          5.112851    2.220441    0.200641
 C          6.659641    0.480823    0.125975
 C          6.467552    1.889794    0.227013
 C          0.715088    6.774883    0.086353
 C         -0.715116    6.774888   -0.086233
 C          7.960852   -0.076848    0.116545
 H          8.710820    0.700193    0.189794
 C          8.463630   -1.369526    0.036038
 C          7.661005   -2.610803   -0.037372
 C          8.617953   -3.738024   -0.074674
 C          9.929872   -3.232620   -0.034028
 C          9.872383   -1.751887    0.026108
 C          1.410190    8.010612    0.171536
 H          2.486241    8.017666    0.301635
 C          0.705003    9.179846    0.085996
 C         -0.705032    9.179852   -0.085717
 C         -1.410218    8.010623   -0.171335
 H         -2.486269    8.017686   -0.301433
 C          8.334662   -5.089620   -0.138964
 H          7.309463   -5.442022   -0.169792
 C          9.403920   -5.990544   -0.162879
 C         10.723572   -5.506282   -0.121389
 C         10.996900   -4.133580   -0.057901
 H         12.030192   -3.818470   -0.028597
 C         10.993900   -0.922689    0.053562
 C         10.952055    0.501283    0.081526
 C         12.332263   -1.413596    0.047589
 C          7.578193    2.895945    0.354298
 H          8.137725    2.760573    1.286992
 H          7.180471    3.914372    0.350567
 C         -7.578230    2.895983   -0.354189
 H         -8.137818    2.760684   -1.286860
 H         -7.180504    3.914408   -0.350402
 H          8.297592    2.816619   -0.467483
 H         -8.297583    2.816597    0.467626
 H         -0.642605   -0.506427    1.178732
 H          0.642593   -0.506355   -1.179072
Cl         12.078027   -6.605453   -0.147520
Cl          9.061638   -7.697927   -0.243868
Cl         -9.061438   -7.697932    0.244065
Cl        -12.077864   -6.605556    0.147754
 F          1.318496   10.368528    0.160737
 F         -1.318524   10.368538   -0.160380
