        94
S0: Total Energy = -7012.13853808
 C          8.625645   -4.043321   -0.101242
 C          8.343197   -5.395285   -0.185103
 H          7.318338   -5.747183   -0.228897
 C          9.411888   -6.294050   -0.211378
 C         10.732619   -5.812265   -0.152167
 C         11.003674   -4.440961   -0.068691
 H         12.036578   -4.126092   -0.026124
 C          9.935998   -3.542806   -0.043031
 C          9.876908   -2.057151    0.036562
 C          8.464866   -1.679520    0.037700
 N         10.975734    1.353345    0.188800
 N         13.446273   -2.079814    0.078199
 N          1.657871    0.651916   -0.041354
 N         -1.657930    0.651945    0.041947
 O          6.443166   -3.026452   -0.091675
 O         -6.443185   -3.026395    0.092047
 S          5.106894   -0.688420    0.008093
 S          4.283101    3.474840    0.327907
 S         -4.283112    3.474850   -0.327807
 S         -5.106986   -0.688345   -0.007439
 N         -1.411286    5.312354   -0.192902
 N          1.411300    5.312368    0.192690
 N        -10.975784    1.353424   -0.186677
 N        -13.446281   -2.079864   -0.077222
 C          7.665374   -2.916519   -0.057207
 C         10.994414   -1.237051    0.086187
 C         10.951842    0.188506    0.143033
 C          7.962137   -0.388549    0.125908
 H          8.713856    0.386297    0.210959
 C          6.669033    0.173417    0.134072
 C          4.253640    0.817731    0.091433
 C          5.126852    1.916674    0.219528
 C          6.481474    1.578728    0.245173
 C         12.334692   -1.729706    0.079839
 C          2.907688    1.236122    0.083741
 C          0.715041    1.668874    0.018394
 C          1.391350    2.918501    0.137798
 C          2.765471    2.624467    0.199011
 C          1.488552   -0.725864   -0.502160
 H          1.368176   -1.424208    0.330208
 H          2.374461   -1.009417   -1.073735
 C         -0.715084    1.668878   -0.017997
 C         -2.907742    1.236155   -0.083203
 C         -2.765504    2.624479   -0.198669
 C         -1.391372    2.918497   -0.137574
 C         -0.716491    4.184545   -0.096127
 C          0.716487    4.184551    0.096135
 C         -1.488613   -0.725748    0.503030
 H         -1.368189   -1.424244   -0.329205
 H         -2.374549   -1.009209    1.074604
 C         -4.253696    0.817771   -0.090980
 C         -5.126882    1.916705   -0.219324
 C         -6.669109    0.173492   -0.133737
 C         -6.481509    1.578791   -0.245011
 C         -0.710767    6.467794   -0.098463
 C          0.710801    6.467801    0.098019
 C         -7.962199   -0.388508   -0.125707
 H         -8.713940    0.386284   -0.211047
 C         -8.464899   -1.679485   -0.037385
 C         -7.665391   -2.916478    0.057464
 C         -8.625642   -4.043308    0.101234
 C         -9.936000   -3.542814    0.042985
 C         -9.876936   -2.057140   -0.036219
 C         -1.396283    7.705934   -0.193992
 H         -2.469997    7.694894   -0.342351
 C         -0.708016    8.891882   -0.098664
 C          0.708094    8.891890    0.097712
 C          1.396339    7.705949    0.193290
 H          2.470053    7.694920    0.341650
 C         -8.343172   -5.395284    0.184814
 H         -7.318310   -5.747167    0.228662
 C         -9.411844   -6.294081    0.210727
 C        -10.732581   -5.812319    0.151430
 C        -11.003659   -4.441003    0.068261
 H        -12.036563   -4.126147    0.025592
 C        -10.994451   -1.237018   -0.085308
 C        -10.951876    0.188566   -0.141451
 C        -12.334726   -1.729678   -0.078924
 C         -7.591124    2.585602   -0.380780
 H         -8.143365    2.448884   -1.317397
 H         -7.192461    3.603369   -0.375556
 C          7.591183    2.585496    0.380491
 H          8.145403    2.447332    1.315706
 H          7.192366    3.603209    0.377749
 H         -8.315855    2.507471    0.436087
 H          8.314242    2.508788   -0.438019
 H          0.629231   -0.788979   -1.169269
 H         -0.629318   -0.788733    1.170185
Cl        -12.086309   -6.911200    0.179218
Cl         -9.071581   -7.999684    0.316426
Cl         -1.588293   10.395650   -0.220375
Cl          1.588398   10.395668    0.219097
Cl          9.071658   -7.999636   -0.317443
Cl         12.086374   -6.911100   -0.180458
        94
T1: Total Energy = -7012.09399804
 C         -8.624609   -4.042460    0.069852
 C         -8.344979   -5.395260    0.129035
 H         -7.320874   -5.751091    0.156255
 C         -9.416854   -6.292548    0.152459
 C        -10.734530   -5.804921    0.115575
 C        -11.003096   -4.430188    0.057298
 H        -12.035529   -4.112014    0.031336
 C         -9.933860   -3.534807    0.034130
 C         -9.868513   -2.048898   -0.021094
 C         -8.464014   -1.673173   -0.034167
 N        -10.975765    1.372016   -0.075893
 N        -13.440955   -2.057677   -0.029522
 N         -1.658470    0.623821    0.044902
 N          1.658521    0.623850   -0.045388
 O         -6.442312   -3.025457    0.053099
 O          6.442297   -3.025368   -0.053335
 S         -5.108074   -0.701536   -0.011856
 S         -4.263538    3.478873   -0.290363
 S          4.263545    3.478880    0.290391
 S          5.108138   -0.701480    0.011345
 N          1.415448    5.304990    0.159652
 N         -1.415462    5.304995   -0.159444
 N         10.976376    1.371983    0.074296
 N         13.440955   -2.057850    0.028758
 C         -7.664969   -2.916104    0.033397
 C        -10.988850   -1.219033   -0.041154
 C        -10.945942    0.205664   -0.061891
 C         -7.955751   -0.375897   -0.114115
 H         -8.704652    0.401917   -0.186089
 C         -6.658417    0.173785   -0.123909
 C         -4.234705    0.808311   -0.080889
 C         -5.111222    1.915076   -0.197024
 C         -6.459663    1.590606   -0.223523
 C        -12.328180   -1.708491   -0.033315
 C         -2.900381    1.212838   -0.071000
 C         -0.700413    1.642595   -0.003375
 C         -1.392841    2.910284   -0.106174
 C         -2.746981    2.622741   -0.170410
 C         -1.492279   -0.754920    0.504576
 H         -1.358775   -1.450083   -0.328354
 H         -2.384811   -1.042299    1.063817
 C          0.700450    1.642604    0.003027
 C          2.900422    1.212863    0.070637
 C          2.747003    2.622751    0.170245
 C          1.392860    2.910286    0.106027
 C          0.716948    4.181699    0.077722
 C         -0.716946    4.181701   -0.077685
 C          1.492360   -0.754829   -0.505259
 H          1.358875   -1.450114    0.327573
 H          2.384897   -1.042106   -1.064544
 C          4.234749    0.808350    0.080520
 C          5.111250    1.915106    0.196861
 C          6.658465    0.173840    0.123633
 C          6.459693    1.590647    0.223409
 C          0.712352    6.464033    0.082423
 C         -0.712381    6.464036   -0.082043
 C          7.955796   -0.375851    0.113864
 H          8.704704    0.401941    0.185971
 C          8.464034   -1.673132    0.033848
 C          7.664956   -2.916049   -0.033595
 C          8.624564   -4.042440   -0.069807
 C          9.933829   -3.534818   -0.034125
 C          9.868525   -2.048895    0.020748
 C          1.399983    7.699130    0.163072
 H          2.476673    7.688482    0.287479
 C          0.708985    8.887130    0.082939
 C         -0.709047    8.887133   -0.082202
 C         -1.400029    7.699135   -0.162508
 H         -2.476719    7.688490   -0.286916
 C          8.344899   -5.395244   -0.128736
 H          7.320786   -5.751052   -0.155947
 C          9.416750   -6.292567   -0.151906
 C         10.734438   -5.804972   -0.115033
 C         11.003040   -4.430235   -0.057036
 H         12.035481   -4.112083   -0.031070
 C         10.988899   -1.219067    0.040403
 C         10.946060    0.205642    0.060496
 C         12.328203   -1.708595    0.032655
 C          7.572439    2.594065    0.347180
 H          8.144834    2.447636    1.270399
 H          7.175970    3.612910    0.359956
 C         -7.572441    2.594021   -0.347016
 H         -8.145307    2.447384   -1.269904
 H         -7.175957    3.612854   -0.360229
 H          8.280432    2.522358   -0.485450
 H         -8.280019    2.522522    0.485992
 H         -0.640995   -0.817163    1.182487
 H          0.641074   -0.816994   -1.183174
Cl         12.092859   -6.899079   -0.140022
Cl          9.079285   -8.001523   -0.226277
Cl          1.592404   10.388489    0.185713
Cl         -1.592487   10.388495   -0.184756
Cl         -9.079433   -8.001497    0.227166
Cl        -12.092981   -6.898983    0.140899
        94
S1: Total Energy = -7012.07839470
 C         -8.619329   -4.041653    0.077328
 C         -8.336364   -5.393349    0.142225
 H         -7.311276   -5.746009    0.173576
 C         -9.405827   -6.293935    0.166029
 C        -10.725422   -5.809457    0.123777
 C        -10.998322   -4.436669    0.059659
 H        -12.031525   -4.121331    0.029780
 C         -9.931084   -3.536150    0.035952
 C         -9.873223   -2.055157   -0.024850
 C         -8.464334   -1.673247   -0.034113
 N        -10.980702    1.364699   -0.105361
 N        -13.445243   -2.068154   -0.045814
 N         -1.658145    0.632204    0.044872
 N          1.658147    0.632227   -0.045597
 O         -6.439156   -3.020242    0.063558
 O          6.439210   -3.020310   -0.063669
 S         -5.107727   -0.696422   -0.008543
 S         -4.268862    3.478459   -0.296108
 S          4.268814    3.478430    0.296180
 S          5.107734   -0.696395    0.008019
 N          1.415067    5.309116    0.166006
 N         -1.415122    5.309136   -0.165811
 N         10.979981    1.364908    0.102851
 N         13.445276   -2.067796    0.044442
 C         -7.662092   -2.914755    0.039934
 C        -10.994288   -1.225999   -0.053593
 C        -10.952010    0.198033   -0.083264
 C         -7.961155   -0.380666   -0.114259
 H         -8.710785    0.396688   -0.187432
 C         -6.659832    0.176272   -0.123468
 C         -4.240312    0.812098   -0.080505
 C         -5.112841    1.915477   -0.198264
 C         -6.467359    1.585528   -0.224295
 C        -12.332845   -1.716667   -0.047696
 C         -2.900003    1.221552   -0.072609
 C         -0.702914    1.649864   -0.006182
 C         -1.392096    2.915004   -0.111712
 C         -2.750857    2.625521   -0.175704
 C         -1.492503   -0.748598    0.499398
 H         -1.359055   -1.440232   -0.336331
 H         -2.385585   -1.037329    1.056821
 C          0.702902    1.649869    0.005602
 C          2.899991    1.221562    0.072084
 C          2.750827    2.625509    0.175435
 C          1.392068    2.914995    0.111400
 C          0.716652    4.184718    0.081052
 C         -0.716693    4.184727   -0.081112
 C          1.492545   -0.748498   -0.500372
 H          1.359091   -1.440282    0.335231
 H          2.385652   -1.037108   -1.057820
 C          4.240302    0.812111    0.080065
 C          5.112809    1.915470    0.198138
 C          6.659825    0.176290    0.123262
 C          6.467328    1.585527    0.224303
 C          0.712354    6.467143    0.085565
 C         -0.712423    6.467153   -0.085111
 C          7.961148   -0.380654    0.114048
 H          8.710785    0.396684    0.187359
 C          8.464340   -1.673222    0.033778
 C          7.662141   -2.914771   -0.040040
 C          8.619419   -4.041646   -0.077146
 C          9.931158   -3.536086   -0.035953
 C          9.873241   -2.055076    0.024360
 C          1.399347    7.702815    0.169093
 H          2.475502    7.692261    0.298088
 C          0.708715    8.890733    0.086062
 C         -0.708814    8.890743   -0.085064
 C         -1.399432    7.702836   -0.168361
 H         -2.475586    7.692296   -0.297358
 C          8.336499   -5.393370   -0.141654
 H          7.311422   -5.746073   -0.172895
 C          9.405991   -6.293927   -0.165208
 C         10.725570   -5.809393   -0.123118
 C         10.998426   -4.436576   -0.059423
 H         12.031620   -4.121196   -0.029655
 C         10.994257   -1.225829    0.052426
 C         10.951874    0.198219    0.081163
 C         12.332849   -1.716401    0.046533
 C          7.577702    2.591924    0.351504
 H          8.137132    2.456686    1.284265
 H          7.179833    3.610272    0.347630
 C         -7.577798    2.591916   -0.350995
 H         -8.138351    2.456065   -1.282981
 H         -7.179859    3.610239   -0.348294
 H          8.297082    2.512587   -0.470273
 H         -8.296217    2.513182    0.471691
 H         -0.641982   -0.813410    1.177812
 H          0.642042   -0.813208   -1.178818
Cl         12.080210   -6.908106   -0.148731
Cl          9.064272   -8.001283   -0.246481
Cl          1.591599   10.392147    0.192540
Cl         -1.591717   10.392170   -0.191207
Cl         -9.064054   -8.001254    0.247820
Cl        -12.080026   -6.908206    0.149704
