       113
S0: Total Energy = -4945.47739231
 C          1.488764   -1.674940    0.061605
 C          0.712262   -2.881056    0.023272
 C         -0.712129   -2.881016   -0.004859
 C         -1.488522   -1.674679   -0.040442
 C         -0.712776   -0.509876   -0.032327
 C          0.712900   -0.510214    0.063105
 N          1.129052   -4.165612    0.022065
 N         -1.128590   -4.165610   -0.020219
 O         -1.352967    0.703066   -0.060652
 O          1.352954    0.702553    0.100483
 C         -1.221452    1.451911   -1.290078
 H         -1.837295    2.342534   -1.159969
 H         -0.179642    1.733400   -1.456383
 H         -1.595876    0.863237   -2.133918
 C          1.223148    1.440784    1.336431
 H          1.600190    0.845510    2.174458
 H          1.837434    2.333372    1.212558
 H          0.181296    1.719445    1.507357
 C         -2.939248   -1.681561   -0.084242
 C         -3.764430   -2.804940   -0.176169
 S         -3.904667   -0.190582    0.012345
 C         -5.129842   -2.483809   -0.174907
 H         -3.356888   -3.804765   -0.235789
 C         -5.363603   -1.114914   -0.078414
 C         -6.767574   -0.881132   -0.086594
 C         -7.443003   -2.111090   -0.188720
 S         -7.805762    0.482921   -0.002955
 C         -8.828161   -1.966040   -0.201243
 C         -9.229112   -0.593839   -0.105754
 C        -10.583894   -0.222738   -0.098566
 C        -11.272062    0.985391   -0.014781
 H        -11.219372   -1.096331   -0.174718
 C        -10.665290    2.323886    0.103579
 C        -12.720107    1.151240   -0.022057
 O         -9.472384    2.614812    0.140277
 C        -11.780103    3.296949    0.173673
 C        -13.002251    2.608533    0.100345
 C        -13.708396    0.179146   -0.123769
 C        -11.694116    4.677276    0.293220
 C        -14.198168    3.333500    0.148863
 C        -15.105273    0.472333   -0.117730
 C        -13.462574   -1.220574   -0.248176
 C        -12.886888    5.384718    0.340404
 H        -10.738596    5.187742    0.348355
 C        -14.114830    4.715973    0.268789
 H        -15.180813    2.885237    0.099304
 N        -16.256349    0.657378   -0.117565
 N        -13.324858   -2.374161   -0.352072
 F        -12.891491    6.719797    0.455343
 F        -15.237002    5.448239    0.319311
 C          2.939588   -1.681981    0.101064
 C          3.765198   -2.805818    0.183045
 S          3.904455   -0.190393    0.008617
 C          5.130593   -2.484636    0.176224
 H          3.358047   -3.806024    0.239159
 C          5.363842   -1.115220    0.086092
 C          6.767839   -0.881470    0.087611
 C          7.443805   -2.111987    0.178862
 S          7.805576    0.483010    0.005296
 C          8.829012   -1.967008    0.184215
 C          9.229456   -0.594279    0.094393
 C         10.584177   -0.223062    0.083001
 C         11.271888    0.985589    0.003021
 H         11.220030   -1.097024    0.151339
 C         10.664514    2.324584   -0.106249
 C         12.719931    1.151610    0.005756
 O          9.471445    2.615531   -0.137010
 C         11.778937    3.298134   -0.175781
 C         13.001435    2.609531   -0.110506
 C         13.708705    0.179191    0.099330
 C         11.692333    4.679024   -0.288139
 C         14.197073    3.334897   -0.159956
 C         15.105520    0.472598    0.089877
 C         13.463499   -1.221145    0.217881
 C         12.884832    5.386855   -0.336326
 H         10.736554    5.189634   -0.337097
 C         14.113118    4.717935   -0.272703
 H         15.179951    2.886523   -0.116353
 N         16.256565    0.657805    0.086658
 N         13.326326   -2.375242    0.316696
 F         12.888844    6.722490   -0.444626
 F         15.234997    5.450607   -0.323850
 N          0.000385   -4.858326   -0.008106
 C         -0.000555   -6.313529    0.048768
 H          0.905970   -6.674122   -0.436273
 H         -0.022645   -6.646107    1.090445
 H         -0.885712   -6.674601   -0.473957
 C         -9.812719   -3.102090   -0.300795
 H        -10.470011   -3.144987    0.574807
 H        -10.459323   -3.002321   -1.179497
 H         -9.297875   -4.060938   -0.375698
 C          9.814036   -3.103634    0.271705
 H         10.467715   -3.140337   -0.606862
 H         10.464260   -3.010004    1.148422
 H          9.299497   -4.062992    0.341966
 C          6.438033   -3.270078    0.244788
 C         -6.436862   -3.268804   -0.255623
 C         -6.569904   -4.232289    0.946702
 H         -7.524679   -4.766748    0.917850
 H         -5.767130   -4.977324    0.923371
 H         -6.507838   -3.689958    1.895187
 C         -6.523100   -4.047685   -1.588798
 H         -6.433209   -3.373342   -2.446032
 H         -5.715883   -4.786127   -1.646058
 H         -7.474228   -4.583261   -1.670580
 C          6.532054   -4.057006    1.572668
 H          6.446733   -3.387920    2.434476
 H          5.725483   -4.796144    1.629964
 H          7.483858   -4.592622    1.645811
 C          6.564025   -4.226269   -0.964138
 H          7.518395   -4.761849   -0.943419
 H          5.760613   -4.970633   -0.941394
 H          6.497665   -3.678032   -1.908931
       113
T1: Total Energy = -4945.43949855
 C          1.497940   -1.675172    0.050504
 C          0.710649   -2.887829    0.020049
 C         -0.710647   -2.887718   -0.008650
 C         -1.497745   -1.674864   -0.038852
 C         -0.697816   -0.488751   -0.037968
 C          0.698026   -0.489093    0.056882
 N          1.127811   -4.167455    0.019554
 N         -1.127636   -4.167331   -0.023468
 O         -1.355817    0.714059   -0.075483
 O          1.355954    0.713536    0.101646
 C         -1.205240    1.476752   -1.294404
 H         -1.853823    2.345875   -1.179112
 H         -0.167817    1.791879   -1.422773
 H         -1.531101    0.883124   -2.154597
 C          1.207518    1.466973    1.326522
 H          1.536508    0.867491    2.181456
 H          1.854453    2.337943    1.216005
 H          0.169940    1.779616    1.459887
 C         -2.911392   -1.672686   -0.063319
 C         -3.760676   -2.814529   -0.107314
 S         -3.891253   -0.169336   -0.010431
 C         -5.103259   -2.498602   -0.105664
 H         -3.349019   -3.814047   -0.138438
 C         -5.348042   -1.105455   -0.056402
 C         -6.731429   -0.878628   -0.056514
 C         -7.416363   -2.118526   -0.107236
 S         -7.782786    0.491476   -0.007617
 C         -8.794815   -1.977349   -0.110008
 C         -9.199189   -0.595427   -0.058956
 C        -10.555303   -0.230766   -0.057496
 C        -11.245917    0.983102   -0.009397
 H        -11.190028   -1.106346   -0.101918
 C        -10.640475    2.327566    0.078654
 C        -12.689870    1.148465   -0.023067
 O         -9.447993    2.619879    0.108177
 C        -11.755576    3.300393    0.129493
 C        -12.976110    2.607085    0.070977
 C        -13.678460    0.170085   -0.112667
 C        -11.671895    4.682589    0.220780
 C        -14.172783    3.330618    0.105730
 C        -15.074649    0.461768   -0.113168
 C        -13.433203   -1.230290   -0.219449
 C        -12.866306    5.389192    0.254823
 H        -10.717309    5.195927    0.264481
 C        -14.091896    4.716271    0.197937
 H        -15.154662    2.879707    0.066152
 N        -16.226303    0.646072   -0.117153
 N        -13.300857   -2.386072   -0.309816
 F        -12.872840    6.726920    0.342826
 F        -15.216330    5.446229    0.234846
 C          2.911617   -1.673095    0.071707
 C          3.761021   -2.815069    0.109603
 S          3.891268   -0.169534    0.020843
 C          5.103585   -2.499113    0.104348
 H          3.349535   -3.814724    0.138684
 C          5.348199   -1.105818    0.058367
 C          6.731574   -0.878993    0.054140
 C          7.416684   -2.119036    0.098681
 S          7.782750    0.491257    0.005542
 C          8.795136   -1.977844    0.097241
 C          9.199323   -0.595753    0.049294
 C         10.555408   -0.230995    0.045846
 C         11.245812    0.983106    0.000629
 H         11.190292   -1.106668    0.085931
 C         10.640071    2.327765   -0.082275
 C         12.689761    1.148631    0.012934
 O          9.447514    2.619989   -0.109581
 C         11.754963    3.300930   -0.131090
 C         12.975668    2.607614   -0.076419
 C         13.678602    0.170098    0.097994
 C         11.670961    4.683426   -0.217403
 C         14.172187    3.331461   -0.109996
 C         15.074753    0.461972    0.097818
 C         13.433676   -1.230670    0.200297
 C         12.865219    5.390338   -0.250305
 H         10.716246    5.196768   -0.258165
 C         14.090978    4.717417   -0.197210
 H         15.154180    2.880569   -0.073125
 N         16.226387    0.646416    0.101079
 N         13.301628   -2.386778    0.286865
 F         12.871442    6.728371   -0.333540
 F         15.215253    5.447687   -0.232802
 N          0.000233   -4.866710   -0.012002
 C         -0.000968   -6.320594    0.051914
 H          0.903915   -6.684182   -0.434308
 H         -0.020816   -6.651285    1.094501
 H         -0.886831   -6.684152   -0.468182
 C         -9.786084   -3.110421   -0.158174
 H        -10.435202   -3.117034    0.724785
 H        -10.441349   -3.039434   -1.033431
 H         -9.277515   -4.074622   -0.202415
 C          9.786552   -3.111052    0.138716
 H         10.433561   -3.114300   -0.745801
 H         10.443908   -3.043376    1.012672
 H          9.278099   -4.075424    0.180486
 C          6.414959   -3.282110    0.136435
 C         -6.414515   -3.281498   -0.144699
 C         -6.537987   -4.202045    1.091460
 H         -7.494931   -4.733241    1.090291
 H         -5.737644   -4.949921    1.085552
 H         -6.464690   -3.627777    2.020107
 C         -6.519219   -4.104281   -1.449563
 H         -6.431788   -3.460511   -2.330193
 H         -5.718895   -4.851174   -1.488467
 H         -7.475992   -4.632920   -1.503823
 C          6.524503   -4.108433    1.438664
 H          6.440174   -3.467071    2.321355
 H          5.724503   -4.855614    1.478474
 H          7.481605   -4.636958    1.487973
 C          6.533798   -4.199314   -1.102648
 H          7.490346   -4.731221   -1.106061
 H          5.732917   -4.946617   -1.096148
 H          6.457839   -3.622453   -2.029472
       113
S1: Total Energy = -4945.42214167
 C          1.495134   -1.684610    0.102893
 C          0.711651   -2.894149    0.054798
 C         -0.710879   -2.893543    0.026643
 C         -1.494138   -1.682857    0.009438
 C         -0.701585   -0.502251    0.032046
 C          0.702416   -0.504364    0.127780
 N          1.128556   -4.175214    0.037192
 N         -1.127651   -4.174435   -0.004599
 O         -1.355912    0.701646    0.015257
 O          1.356152    0.698494    0.191591
 C         -1.198153    1.493080   -1.185227
 H         -1.846623    2.359601   -1.052076
 H         -0.159935    1.809811   -1.301103
 H         -1.520580    0.919785   -2.060227
 C          1.209489    1.431657    1.429709
 H          1.546735    0.820108    2.272690
 H          1.850466    2.308126    1.329395
 H          0.170743    1.735647    1.573274
 C         -2.917234   -1.682507   -0.029581
 C         -3.759644   -2.818251   -0.106517
 S         -3.892844   -0.183278    0.041691
 C         -5.108192   -2.500212   -0.116058
 H         -3.349088   -3.817661   -0.151931
 C         -5.348500   -1.114113   -0.042633
 C         -6.738377   -0.882338   -0.059458
 C         -7.420201   -2.117018   -0.145206
 S         -7.785197    0.487563   -0.002196
 C         -8.802427   -1.972757   -0.166641
 C         -9.203718   -0.595019   -0.093909
 C        -10.561729   -0.226272   -0.097694
 C        -11.249402    0.985879   -0.033616
 H        -11.197255   -1.100122   -0.163487
 C        -10.640574    2.328610    0.068887
 C        -12.694549    1.155957   -0.048281
 O         -9.447158    2.616617    0.106627
 C        -11.752915    3.303461    0.120801
 C        -12.975591    2.612353    0.051924
 C        -13.685616    0.177832   -0.139388
 C        -11.666178    4.684522    0.220895
 C        -14.170624    3.339939    0.084955
 C        -15.080726    0.471637   -0.140399
 C        -13.442847   -1.222416   -0.244022
 C        -12.859196    5.394515    0.253078
 H        -10.710435    5.195004    0.272573
 C        -14.086088    4.724873    0.185640
 H        -15.153483    2.891939    0.037356
 N        -16.232420    0.658308   -0.145031
 N        -13.311913   -2.378969   -0.332217
 F        -12.862430    6.731907    0.348996
 F        -15.208767    5.457717    0.220655
 C          2.918579   -1.684582    0.123604
 C          3.762457   -2.821456    0.151027
 S          3.892298   -0.183087    0.076009
 C          5.110871   -2.502872    0.137649
 H          3.353471   -3.822243    0.176559
 C          5.349430   -1.115189    0.095946
 C          6.739327   -0.883359    0.078765
 C          7.422903   -2.119624    0.111109
 S          7.784505    0.487867    0.023519
 C          8.805224   -1.975461    0.095006
 C          9.204712   -0.596128    0.047347
 C         10.562423   -0.226814    0.028450
 C         11.248455    0.986982   -0.020543
 H         11.199268   -1.101678    0.057463
 C         10.637472    2.330980   -0.087080
 C         12.693556    1.157726   -0.027238
 O          9.443486    2.618926   -0.097341
 C         11.748404    3.307223   -0.143111
 C         12.972329    2.615757   -0.108411
 C         13.686292    0.178968    0.034652
 C         11.659478    4.689736   -0.218030
 C         14.166354    3.344515   -0.150813
 C         15.081171    0.473317    0.016446
 C         13.445575   -1.222532    0.126608
 C         12.851515    5.400857   -0.260146
 H         10.702834    5.200528   -0.243258
 C         14.079614    4.730903   -0.226588
 H         15.150028    2.896321   -0.128792
 N         16.232751    0.660392    0.004293
 N         13.316343   -2.380079    0.203607
 F         12.852619    6.739688   -0.333473
 F         15.201254    5.464910   -0.269932
 N          0.000557   -4.871840   -0.002211
 C         -0.000568   -6.326977    0.040720
 H          0.902518   -6.683475   -0.453878
 H         -0.016330   -6.671098    1.078903
 H         -0.888868   -6.682524   -0.480562
 C         -9.792073   -3.105013   -0.253487
 H        -10.456252   -3.129219    0.617758
 H        -10.432286   -3.016928   -1.138322
 H         -9.282418   -4.068118   -0.308219
 C          9.796403   -3.109382    0.121791
 H         10.434150   -3.109901   -0.769369
 H         10.463022   -3.045258    0.988957
 H          9.287890   -4.073644    0.165543
 C          6.423185   -3.284195    0.154843
 C         -6.419264   -3.280476   -0.189591
 C         -6.562763   -4.223621    1.027396
 H         -7.522173   -4.749747    1.003935
 H         -5.766293   -4.975608    1.017633
 H         -6.498910   -3.667206    1.967519
 C         -6.504450   -4.079176   -1.510879
 H         -6.405030   -3.419175   -2.378108
 H         -5.702896   -4.824731   -1.552013
 H         -7.459689   -4.607679   -1.588686
 C          6.546346   -4.114172    1.453711
 H          6.470104   -3.475330    2.338957
 H          5.747846   -4.862664    1.499406
 H          7.504587   -4.641565    1.491927
 C          6.530851   -4.198042   -1.087829
 H          7.487088   -4.730331   -1.101039
 H          5.729906   -4.945287   -1.076442
 H          6.446977   -3.618535   -2.012313
