       126
S0: Total Energy = -6206.04837127
 C         -5.221338   -0.848557   -0.041830
 C         -4.388453   -1.962969   -0.042659
 C         -3.021833   -1.624700   -0.035728
 C         -2.793639   -0.261979   -0.022639
 C         -1.380372    0.036373   -0.004920
 C         -0.701012   -1.211669    0.015405
 C          0.684488   -1.254488    0.015063
 S         -4.259928    0.650624   -0.022559
 C         -1.698805   -2.393988    0.005758
 H          1.218692   -2.199939    0.021047
 C          5.221338    0.848561    0.041819
 C          4.388452    1.962973    0.042648
 C          3.021832    1.624702    0.035719
 C          2.793638    0.261982    0.022631
 C          1.380371   -0.036371    0.004913
 C          0.701012    1.211671   -0.015412
 C         -0.684488    1.254490   -0.015070
 S          4.259928   -0.650621    0.022551
 C          1.698804    2.393990   -0.005766
 H         -1.218693    2.199941   -0.021054
 C         -1.671564   -3.237025    1.299565
 C         -2.362646   -4.458764    1.346158
 C         -2.428184   -5.203788    2.520538
 C         -1.806920   -4.762453    3.698016
 C         -1.126507   -3.541801    3.650742
 C         -1.059188   -2.789894    2.475088
 H         -2.849887   -4.836302    0.451784
 H         -2.972316   -6.145879    2.522160
 H         -0.638205   -3.166041    4.547196
 H         -0.525357   -1.845524    2.485016
 C         -1.442175   -3.245459   -1.255550
 C         -0.481420   -4.267707   -1.242208
 C         -0.182567   -4.988115   -2.397509
 C         -0.831524   -4.721187   -3.610409
 C         -1.785306   -3.696827   -3.621836
 C         -2.085765   -2.970998   -2.468372
 H          0.033156   -4.513090   -0.317944
 H          0.567808   -5.774572   -2.353293
 H         -2.305251   -3.459757   -4.547498
 H         -2.829540   -2.182057   -2.520056
 C          1.442174    3.245459    1.255544
 C          0.481370    4.267661    1.242227
 C          0.182520    4.988060    2.397535
 C          0.831527    4.721169    3.610415
 C          1.785357    3.696852    3.621818
 C          2.085813    2.971032    2.468347
 H         -0.033248    4.513014    0.317980
 H         -0.567895    5.774481    2.353339
 H          2.305342    3.459810    4.547464
 H          2.829626    2.182125    2.520012
 C          1.671561    3.237024   -1.299574
 C          2.362691    4.458737   -1.346192
 C          2.428228    5.203751   -2.520577
 C          1.806918    4.762433   -3.698038
 C          1.126460    3.541809   -3.650740
 C          1.059141    2.789910   -2.475081
 H          2.849969    4.836260   -0.451832
 H          2.972397    6.145821   -2.522218
 H          0.638122    3.166061   -4.547181
 H          0.525274    1.845561   -2.484991
 C         -1.855623   -5.589246    4.961398
 H         -1.131341   -6.413915    4.925836
 H         -1.620924   -4.985329    5.843733
 C         -0.531910   -5.528524   -4.851584
 H         -0.734974   -4.954072   -5.761392
 H          0.515039   -5.849280   -4.877726
 C          0.531914    5.528497    4.851596
 H         -0.515054    5.849189    4.877778
 H          0.735049    4.954065    5.761401
 C          1.855623    5.589218   -4.961426
 H          1.620874    4.985306   -5.843751
 H          1.131376    6.413918   -4.925849
 H         -2.844799   -6.036908    5.109185
 H         -1.149549   -6.435651   -4.894597
 H          1.149499    6.435662    4.894578
 H          2.844813    6.036837   -5.109242
 H          4.783438    2.969156    0.047112
 H         -4.783440   -2.969152   -0.047124
 C          6.667472    0.784986    0.051618
 C          7.501542    1.967352    0.089655
 C          7.363346   -0.423515    0.025081
 N          7.075355    3.233628    0.122012
 C          8.950339    1.856056    0.097094
 C          8.767879   -0.527023    0.032984
 H          6.804652   -1.353796   -0.005542
 S          8.408078    4.192000    0.157204
 N          9.573769    3.036035    0.133773
 C          9.615909    0.576632    0.068012
 H          9.180327   -1.529140    0.008845
 C         11.055787    0.553208    0.077519
 H         11.533079    1.530280    0.104788
 C         11.935083   -0.483028    0.058640
 C         13.390391   -0.218187    0.075648
 S         11.643453   -2.223920    0.014871
 O         13.933353    0.872810    0.105849
 N         14.108938   -1.435805    0.051859
 C         13.382098   -2.591069    0.018881
 C         15.570640   -1.432282    0.062739
 S         13.970395   -4.136427   -0.013583
 H         15.949485   -1.921331   -0.837634
 H         15.886510   -0.390224    0.093151
 H         15.936095   -1.969492    0.940871
 C         -6.667472   -0.784981   -0.051631
 C         -7.501543   -1.967346   -0.089683
 C         -7.363346    0.423520   -0.025081
 N         -7.075358   -3.233623   -0.122055
 C         -8.950340   -1.856049   -0.097123
 C         -8.767878    0.527029   -0.032985
 H         -6.804650    1.353799    0.005554
 S         -8.408081   -4.191993   -0.157260
 N         -9.573772   -3.036028   -0.133818
 C         -9.615910   -0.576625   -0.068027
 H         -9.180325    1.529146   -0.008836
 C        -11.055787   -0.553200   -0.077536
 H        -11.533080   -1.530271   -0.104823
 C        -11.935082    0.483037   -0.058640
 C        -13.390390    0.218198   -0.075658
 S        -11.643451    2.223928   -0.014836
 O        -13.933353   -0.872799   -0.105859
 N        -14.108937    1.435815   -0.051829
 C        -13.382096    2.591078   -0.018825
 C        -15.570639    1.432293   -0.062683
 S        -13.970392    4.136435    0.013706
 H        -15.936106    1.969611   -0.940743
 H        -15.886509    0.390238   -0.093214
 H        -15.949472    1.921232    0.837757
       126
T1: Total Energy = -6206.00877001
 C         -5.205712    0.847458    0.033209
 C         -4.358052    1.974394    0.043100
 C         -3.009899    1.638034    0.031965
 C         -2.772694    0.256517    0.007906
 C         -1.384520   -0.033975   -0.004337
 C         -0.690970    1.223250   -0.010196
 C          0.683989    1.262768    0.000249
 S         -4.243143   -0.660272    0.000935
 C         -1.686820    2.406270    0.000236
 H          1.222680    2.205352    0.005940
 C          5.205711   -0.847435   -0.033337
 C          4.358054   -1.974372   -0.043268
 C          3.009899   -1.638014   -0.032165
 C          2.772692   -0.256498   -0.008104
 C          1.384517    0.033992    0.004119
 C          0.690968   -1.223234    0.009971
 C         -0.683992   -1.262751   -0.000469
 S          4.243140    0.660292   -0.001095
 C          1.686820   -2.406253   -0.000462
 H         -1.222684   -2.205334   -0.006158
 C         -1.656485    3.250839   -1.292845
 C         -2.338881    4.477426   -1.335790
 C         -2.401316    5.223311   -2.509558
 C         -1.786452    4.777734   -3.688950
 C         -1.115876    3.551496   -3.644867
 C         -1.051988    2.798063   -2.470172
 H         -2.821556    4.857908   -0.440361
 H         -2.938248    6.169357   -2.509235
 H         -0.633641    3.172248   -4.542991
 H         -0.526445    1.849034   -2.483419
 C         -1.435012    3.251137    1.266522
 C         -0.477177    4.276048    1.258688
 C         -0.180597    4.989497    2.418687
 C         -0.828737    4.712455    3.629914
 C         -1.779085    3.684868    3.635241
 C         -2.077125    2.965225    2.477372
 H          0.036120    4.529398    0.335939
 H          0.566904    5.778792    2.379483
 H         -2.298122    3.440161    4.559264
 H         -2.818849    2.174085    2.525529
 C          1.435030   -3.251113   -1.266757
 C          0.477389   -4.276203   -1.258849
 C          0.180818   -4.989676   -2.418834
 C          0.828778   -4.712481   -3.630123
 C          1.778939   -3.684722   -3.635521
 C          2.076971   -2.965056   -2.477664
 H         -0.035755   -4.529680   -0.336048
 H         -0.566531   -5.779112   -2.379572
 H          2.297837   -3.439898   -4.559592
 H          2.818549   -2.173783   -2.525877
 C          1.656470   -3.250847    1.292600
 C          2.338670   -4.477546    1.335446
 C          2.401084   -5.223479    2.509184
 C          1.786390   -4.777843    3.688642
 C          1.116003   -3.551498    3.644655
 C          1.052135   -2.798017    2.469990
 H          2.821204   -4.858077    0.439962
 H          2.937864   -6.169612    2.508784
 H          0.633899   -3.172205    4.542831
 H          0.526739   -1.848907    2.483312
 C         -1.832535    5.605574   -4.951489
 H         -1.102476    6.425060   -4.916264
 H         -1.603939    5.000854   -5.834775
 C         -0.531624    5.512803    4.875975
 H         -0.733027    4.932192    5.782135
 H          0.514134    5.837020    4.903858
 C          0.531681   -5.512851   -4.876174
 H         -0.514025   -5.837245   -4.903963
 H          0.732897   -4.932184   -5.782340
 C          1.832447   -5.605732    4.951150
 H          1.604016   -5.001007    5.834474
 H          1.102258   -6.425104    4.915956
 H         -2.818926    6.060106   -5.096174
 H         -1.152590    6.417308    4.923832
 H          1.152796   -6.417249   -4.924112
 H          2.818780   -6.060422    5.095740
 H          4.759556   -2.977725   -0.056410
 H         -4.759552    2.977748    0.056254
 C          6.629933   -0.795278   -0.044534
 C          7.461428   -1.982339   -0.079272
 C          7.335824    0.431104   -0.022235
 N          7.034561   -3.244750   -0.106736
 C          8.911618   -1.868780   -0.088261
 C          8.722060    0.534695   -0.030958
 H          6.770658    1.357766    0.004534
 S          8.374173   -4.212543   -0.140194
 N          9.537555   -3.043492   -0.121449
 C          9.579060   -0.584842   -0.063640
 H          9.141023    1.533803   -0.010753
 C         11.003622   -0.559193   -0.074562
 H         11.486107   -1.533619   -0.100232
 C         11.890734    0.485321   -0.058646
 C         13.339957    0.220245   -0.076716
 S         11.599679    2.222208   -0.017964
 O         13.885910   -0.871847   -0.105580
 N         14.061228    1.439578   -0.056030
 C         13.336695    2.593717   -0.024481
 C         15.522452    1.433462   -0.068613
 S         13.922113    4.142960    0.004497
 H         15.903672    1.923452    0.830336
 H         15.835916    0.390586   -0.097474
 H         15.888268    1.968370   -0.948091
 C         -6.629931    0.795303    0.044480
 C         -7.461423    1.982363    0.079281
 C         -7.335825   -0.431082    0.022220
 N         -7.034555    3.244774    0.106720
 C         -8.911613    1.868804    0.088375
 C         -8.722058   -0.534673    0.031044
 H         -6.770660   -1.357743   -0.004594
 S         -8.374165    4.212568    0.140286
 N         -9.537548    3.043515    0.121622
 C         -9.579056    0.584865    0.063800
 H         -9.141023   -1.533781    0.010871
 C        -11.003615    0.559215    0.074845
 H        -11.486099    1.533640    0.100569
 C        -11.890729   -0.485301    0.058996
 C        -13.339950   -0.220227    0.077203
 S        -11.599676   -2.222187    0.018265
 O        -13.885903    0.871865    0.106082
 N        -14.061222   -1.439560    0.056517
 C        -13.336691   -2.593698    0.024897
 C        -15.522445   -1.433444    0.069170
 S        -13.922110   -4.142940   -0.004127
 H        -15.888218   -1.968410    0.948630
 H        -15.835908   -0.390570    0.098114
 H        -15.903711   -1.923375   -0.829793
       126
S1: Total Energy = -6205.99132735
 C         -5.203037    0.848450    0.032358
 C         -4.364271    1.971472    0.041672
 C         -3.008978    1.634622    0.030304
 C         -2.774326    0.256934    0.007175
 C         -1.383635   -0.035110   -0.004065
 C         -0.691155    1.222864   -0.011686
 C          0.684586    1.263121   -0.001323
 S         -4.245006   -0.657550    0.001228
 C         -1.687980    2.404271   -0.002276
 H          1.222859    2.205829    0.002749
 C          5.203040   -0.848454   -0.032254
 C          4.364272   -1.971475   -0.041551
 C          3.008981   -1.634622   -0.030122
 C          2.774332   -0.256934   -0.006967
 C          1.383641    0.035111    0.004311
 C          0.691161   -1.222863    0.011929
 C         -0.684580   -1.263120    0.001574
 S          4.245013    0.657547   -0.001064
 C          1.687984   -2.404270    0.002490
 H         -1.222852   -2.205830   -0.002505
 C         -1.660737    3.246336   -1.296819
 C         -2.341365    4.473946   -1.339639
 C         -2.406814    5.217201   -2.514857
 C         -1.797002    4.767945   -3.695507
 C         -1.128464    3.540438   -3.651430
 C         -1.061858    2.789385   -2.475580
 H         -2.820124    4.857164   -0.443324
 H         -2.942227    6.164052   -2.514703
 H         -0.650390    3.158418   -4.550553
 H         -0.538648    1.839013   -2.489206
 C         -1.436101    3.249099    1.263661
 C         -0.482542    4.277932    1.254798
 C         -0.187061    4.991246    2.415085
 C         -0.832218    4.710234    3.627134
 C         -1.778278    3.678644    3.633222
 C         -2.074920    2.958705    2.475266
 H          0.027991    4.534410    0.331375
 H          0.557025    5.783695    2.375593
 H         -2.294735    3.430965    4.557843
 H         -2.812761    2.163881    2.523910
 C          1.436070   -3.249094   -1.263443
 C          0.482490   -4.277907   -1.254561
 C          0.186974   -4.991216   -2.414843
 C          0.832114   -4.710217   -3.626903
 C          1.778194   -3.678646   -3.633009
 C          2.074872   -2.958712   -2.475059
 H         -0.028033   -4.534372   -0.331129
 H         -0.557129   -5.783649   -2.375337
 H          2.294639   -3.430977   -4.557640
 H          2.812727   -2.163902   -2.523717
 C          1.660770   -3.246339    1.297029
 C          2.341421   -4.473936    1.339838
 C          2.406899   -5.217191    2.515055
 C          1.797094   -4.767946    3.695713
 C          1.128534   -3.540451    3.651647
 C          1.061899   -2.789398    2.475798
 H          2.820175   -4.857143    0.443517
 H          2.942330   -6.164032    2.514893
 H          0.650464   -3.158440    4.550776
 H          0.538672   -1.839035    2.489431
 C         -1.846401    5.593022   -4.959604
 H         -1.114694    6.411194   -4.928665
 H         -1.622190    4.986030   -5.842418
 C         -0.536371    5.510631    4.873362
 H         -0.734309    4.928565    5.779318
 H          0.508105    5.838980    4.899919
 C          0.536228   -5.510608   -4.873126
 H         -0.508260   -5.838921   -4.899672
 H          0.734175   -4.928551   -5.779085
 C          1.846524   -5.593023    4.959809
 H          1.622308   -4.986037    5.842626
 H          1.114834   -6.411211    4.928877
 H         -2.832482    6.049057   -5.101388
 H         -1.160910    6.412574    4.922569
 H          1.160735   -6.412573   -4.922336
 H          2.832617   -6.049037    5.101583
 H          4.765933   -2.974692   -0.054766
 H         -4.765934    2.974688    0.054849
 C          6.640760   -0.791889   -0.043500
 C          7.467135   -1.976985   -0.081913
 C          7.338293    0.428486   -0.017700
 N          7.036697   -3.241043   -0.112698
 C          8.917594   -1.865286   -0.091411
 C          8.731585    0.533328   -0.026878
 H          6.774301    1.355943    0.012517
 S          8.375809   -4.207621   -0.149657
 N          9.542471   -3.042748   -0.128398
 C          9.582836   -0.582919   -0.063432
 H          9.149043    1.532914   -0.003346
 C         11.012741   -0.558477   -0.075357
 H         11.493212   -1.533828   -0.102678
 C         11.898464    0.483491   -0.059001
 C         13.348538    0.219520   -0.078284
 S         11.606887    2.220706   -0.017080
 O         13.896324   -0.872027   -0.108229
 N         14.068084    1.439768   -0.057043
 C         13.342927    2.593667   -0.024557
 C         15.529240    1.434568   -0.070272
 S         13.928019    4.144171    0.004817
 H         15.910763    1.924183    0.828783
 H         15.842996    0.391779   -0.099894
 H         15.894559    1.970153   -0.949568
 C         -6.640757    0.791884    0.043521
 C         -7.467135    1.976980    0.081852
 C         -7.338288   -0.428492    0.017710
 N         -7.036699    3.241039    0.112637
 C         -8.917594    1.865282    0.091251
 C         -8.731580   -0.533334    0.026792
 H         -6.774294   -1.355950   -0.012446
 S         -8.375813    4.207619    0.149483
 N         -9.542474    3.042744    0.128167
 C         -9.582834    0.582914    0.063256
 H         -9.149037   -1.532920    0.003258
 C        -11.012740    0.558474    0.075069
 H        -11.493212    1.533826    0.102325
 C        -11.898463   -0.483494    0.058666
 C        -13.348538   -0.219520    0.077811
 S        -11.606885   -2.220711    0.016811
 O        -13.896325    0.872027    0.107770
 N        -14.068084   -1.439769    0.056652
 C        -13.342926   -2.593670    0.024248
 C        -15.529240   -1.434569    0.069873
 S        -13.928017   -4.144177   -0.005003
 H        -15.894564   -1.970122    0.949187
 H        -15.842996   -0.391779    0.099453
 H        -15.910757   -1.924218   -0.829167
