        86
S0: Total Energy = -5281.85034425
 C          5.201012   -0.977547   -0.000014
 C          4.335758   -2.068824   -0.000221
 C          2.979695   -1.694246   -0.000208
 C          2.788341   -0.323646    0.000008
 S          4.280460    0.547773    0.000200
 H          4.704619   -3.085474   -0.000372
 C         -5.201012    0.977547   -0.000068
 C         -4.335758    2.068824    0.000139
 C         -2.979695    1.694247    0.000128
 C         -2.788341    0.323646   -0.000089
 S         -4.280460   -0.547772   -0.000282
 H         -4.704619    3.085475    0.000291
 C          1.642496   -2.418966   -0.000382
 C         -1.642496    2.418966    0.000302
 C          1.382232    0.009465    0.000013
 C          0.710493    1.242030    0.000192
 C         -0.675864    1.226058    0.000138
 C         -1.382232   -0.009464   -0.000092
 C         -0.710493   -1.242030   -0.000272
 C          0.675864   -1.226058   -0.000217
 H          1.265418    2.176757    0.000369
 H         -1.265418   -2.176757   -0.000449
 C          6.647447   -0.954121    0.000049
 C          7.449553   -2.159579   -0.000084
 N          6.989433   -3.414388   -0.000274
 S          8.295813   -4.409426   -0.000355
 N          9.492149   -3.284923   -0.000123
 C          8.900986   -2.087877    0.000005
 C          9.601216   -0.826765    0.000212
 C          8.783156    0.300289    0.000337
 C          7.376851    0.235504    0.000260
 H          9.222859    1.291068    0.000557
 H          6.843772    1.181091    0.000387
 C         -6.647447    0.954121   -0.000135
 C         -7.449553    2.159579    0.000015
 N         -6.989433    3.414388    0.000226
 S         -8.295813    4.409426    0.000320
 N         -9.492149    3.284923    0.000063
 C         -8.900986    2.087876   -0.000081
 C         -9.601216    0.826765   -0.000308
 C         -8.783156   -0.300289   -0.000448
 C         -7.376851   -0.235504   -0.000367
 H         -9.222858   -1.291068   -0.000689
 H         -6.843772   -1.181091   -0.000510
 C         11.040692   -0.842529    0.000312
 H         11.491153   -1.832631    0.000479
 C         11.948496    0.169399    0.000190
 C         13.395471   -0.135054    0.000320
 O         13.909053   -1.240901    0.000830
 N         14.147136    1.062913    0.000311
 C         13.451707    2.237399   -0.000036
 S         14.081670    3.767497   -0.000061
 S         11.704175    1.918186   -0.000226
 C        -11.040692    0.842529   -0.000415
 H        -11.491153    1.832631   -0.000585
 C        -11.948496   -0.169399   -0.000305
 C        -13.395471    0.135054   -0.000469
 O        -13.909053    1.240901   -0.000707
 N        -14.147136   -1.062913   -0.000155
 C        -13.451707   -2.237399    0.000159
 S        -14.081670   -3.767497    0.000583
 S        -11.704175   -1.918186    0.000109
 C          1.468125   -3.286637   -1.267437
 H          2.213423   -4.089648   -1.285052
 H          0.474289   -3.747556   -1.285118
 H          1.585853   -2.688010   -2.176203
 C          1.468024   -3.287083    1.266353
 H          2.213324   -4.090097    1.283750
 H          0.474190   -3.748015    1.283792
 H          1.585674   -2.688774    2.175339
 C         -1.468126    3.286638    1.267357
 H         -2.213423    4.089648    1.284972
 H         -0.474290    3.747557    1.285038
 H         -1.585854    2.688010    2.176123
 C         -1.468024    3.287083   -1.266433
 H         -2.213323    4.090097   -1.283830
 H         -0.474189    3.748015   -1.283871
 H         -1.585674    2.688774   -2.175419
 C         15.608363    1.019285    0.000652
 H         15.994574    1.521580   -0.889181
 H         15.895903   -0.031341    0.000977
 H         15.994173    1.522031    0.890402
 C        -15.608363   -1.019285   -0.000162
 H        -15.994373   -1.521479    0.889816
 H        -15.895903    0.031341   -0.000542
 H        -15.994375   -1.522132   -0.889768
        86
T1: Total Energy = -5281.81160208
 C          5.185006    0.974985    0.000156
 C          4.305257    2.078880    0.000339
 C          2.967511    1.706270    0.000346
 C          2.767180    0.316862    0.000176
 S          4.263626   -0.558956    0.000012
 H          4.680636    3.092905    0.000445
 C         -5.185006   -0.974984    0.000182
 C         -4.305257   -2.078879    0.000042
 C         -2.967511   -1.706269    0.000075
 C         -2.767180   -0.316861    0.000243
 S         -4.263626    0.558956    0.000372
 H         -4.680636   -3.092904   -0.000088
 C          1.631328    2.430586    0.000493
 C         -1.631328   -2.430585   -0.000041
 C          1.386225   -0.007091    0.000181
 C          0.709803   -1.250636    0.000046
 C         -0.665775   -1.237338    0.000086
 C         -1.386225    0.007092    0.000260
 C         -0.709803    1.250637    0.000403
 C          0.665775    1.237339    0.000362
 H          1.269679   -2.181970   -0.000093
 H         -1.269679    2.181971    0.000536
 C          6.609740    0.962479    0.000072
 C          7.408501    2.172570    0.000141
 N          6.947493    3.423361    0.000306
 S          8.260419    4.428072    0.000292
 N          9.455110    3.290834    0.000103
 C          8.861427    2.098999    0.000024
 C          9.563952    0.833696   -0.000167
 C          8.737972   -0.309503   -0.000228
 C          7.349610   -0.244305   -0.000115
 H          9.184355   -1.296878   -0.000388
 H          6.810138   -1.186460   -0.000185
 C         -6.609740   -0.962478    0.000172
 C         -7.408500   -2.172570    0.000050
 N         -6.947493   -3.423361   -0.000067
 S         -8.260418   -4.428072   -0.000152
 N         -9.455110   -3.290834   -0.000084
 C         -8.861427   -2.098999    0.000040
 C         -9.563952   -0.833696    0.000137
 C         -8.737972    0.309503    0.000255
 C         -7.349610    0.244306    0.000274
 H         -9.184355    1.296878    0.000348
 H         -6.810138    1.186460    0.000363
 C         10.988532    0.847446   -0.000287
 H         11.443884    1.835170   -0.000277
 C         11.904424   -0.172158   -0.000406
 C         13.345414    0.132666   -0.000509
 O         13.861568    1.239823   -0.000554
 N         14.100082   -1.066620   -0.000647
 C         13.407133   -2.240114   -0.000637
 S         14.034757   -3.773866   -0.000734
 S         11.661035   -1.917013   -0.000420
 C        -10.988532   -0.847447    0.000111
 H        -11.443884   -1.835170    0.000087
 C        -11.904424    0.172157    0.000098
 C        -13.345414   -0.132667    0.000079
 O        -13.861567   -1.239824    0.000084
 N        -14.100082    1.066619    0.000020
 C        -13.407134    2.240113    0.000000
 S        -14.034759    3.773864   -0.000067
 S        -11.661036    1.917012    0.000066
 C          1.459492    3.297674    1.268394
 H          2.206777    4.098372    1.284619
 H          0.466568    3.759941    1.285109
 H          1.576171    2.699129    2.177211
 C          1.459402    3.298035   -1.267149
 H          2.206697    4.098727   -1.283208
 H          0.466484    3.760323   -1.283655
 H          1.576000    2.699746   -2.176145
 C         -1.459474   -3.297689   -1.267928
 H         -2.206762   -4.098385   -1.284154
 H         -0.466551   -3.759959   -1.284622
 H         -1.576138   -2.699156   -2.176754
 C         -1.459419   -3.298017    1.267614
 H         -2.206712   -4.098712    1.283673
 H         -0.466500   -3.760302    1.284143
 H         -1.576033   -2.699717    2.176601
 C         15.560782   -1.020106   -0.000786
 H         15.948320   -1.521842    0.888876
 H         15.845718    0.031282   -0.000807
 H         15.948147   -1.521835   -0.890528
 C        -15.560783    1.020104   -0.000024
 H        -15.948207    1.521761   -0.889781
 H        -15.845718   -0.031284    0.000054
 H        -15.948261    1.521912    0.889623
        86
S1: Total Energy = -5281.79442015
 C          5.182106    0.975921    0.000043
 C          4.311123    2.076360    0.000207
 C          2.966533    1.703424    0.000194
 C          2.768691    0.318026    0.000020
 S          4.265162   -0.555691   -0.000126
 H          4.686835    3.090196    0.000327
 C         -5.182107   -0.975923    0.000058
 C         -4.311124   -2.076363   -0.000102
 C         -2.966534   -1.703427   -0.000087
 C         -2.768692   -0.318029    0.000085
 S         -4.265163    0.555688    0.000238
 H         -4.686836   -3.090199   -0.000223
 C          1.632110    2.429528    0.000330
 C         -1.632111   -2.429531   -0.000222
 C          1.385202   -0.007506    0.000011
 C          0.710503   -1.250607   -0.000131
 C         -0.665799   -1.237329   -0.000090
 C         -1.385203    0.007503    0.000090
 C         -0.710504    1.250604    0.000233
 C          0.665798    1.237326    0.000193
 H          1.270672   -2.181617   -0.000270
 H         -1.270672    2.181614    0.000372
 C          6.620206    0.959631   -0.000002
 C          7.414127    2.167773    0.000086
 N          6.949551    3.420164    0.000221
 S          8.261918    4.423703    0.000253
 N          9.459771    3.290752    0.000112
 C          8.867197    2.096118    0.000022
 C          9.567537    0.832250   -0.000122
 C          8.747029   -0.307697   -0.000201
 C          7.351731   -0.241562   -0.000146
 H          9.191930   -1.295666   -0.000331
 H          6.813447   -1.184555   -0.000219
 C         -6.620207   -0.959633    0.000089
 C         -7.414129   -2.167774   -0.000001
 N         -6.949553   -3.420165   -0.000126
 S         -8.261921   -4.423704   -0.000162
 N         -9.459773   -3.290751   -0.000048
 C         -8.867198   -2.096118    0.000044
 C         -9.567538   -0.832249    0.000167
 C         -8.747029    0.307697    0.000250
 C         -7.351731    0.241561    0.000216
 H         -9.191929    1.295666    0.000367
 H         -6.813447    1.184554    0.000290
 C         10.997238    0.847389   -0.000182
 H         11.450600    1.836000   -0.000181
 C         11.911794   -0.169821   -0.000233
 C         13.353701    0.134262   -0.000284
 O         13.871272    1.241147   -0.000398
 N         14.106873   -1.065755   -0.000416
 C         13.413494   -2.239197   -0.000385
 S         14.040943   -3.774071   -0.000502
 S         11.668171   -1.914856   -0.000206
 C        -10.997238   -0.847388    0.000215
 H        -11.450601   -1.835999    0.000235
 C        -11.911793    0.169823    0.000226
 C        -13.353701   -0.134259    0.000290
 O        -13.871273   -1.241143    0.000348
 N        -14.106871    1.065759    0.000227
 C        -13.413492    2.239201    0.000147
 S        -14.040939    3.774075    0.000063
 S        -11.668169    1.914858    0.000137
 C          1.461005    3.296759    1.268434
 H          2.210172    4.095606    1.284911
 H          0.469285    3.761549    1.284210
 H          1.575759    2.697981    2.177303
 C          1.460934    3.297125   -1.267515
 H          2.210110    4.095968   -1.283813
 H          0.469220    3.761935   -1.283096
 H          1.575623    2.698606   -2.176564
 C         -1.461009   -3.296766   -1.268325
 H         -2.210177   -4.095612   -1.284798
 H         -0.469289   -3.761557   -1.284101
 H         -1.575764   -2.697990   -2.177195
 C         -1.460932   -3.297124    1.267625
 H         -2.210107   -4.095968    1.283926
 H         -0.469217   -3.761934    1.283205
 H         -1.575619   -2.698603    2.176672
 C         15.567560   -1.019936   -0.000572
 H         15.955064   -1.521771    0.889075
 H         15.852662    0.031424   -0.000604
 H         15.954873   -1.521778   -0.890298
 C        -15.567558    1.019942    0.000247
 H        -15.954977    1.521683   -0.889490
 H        -15.852661   -0.031418    0.000363
 H        -15.954955    1.521878    0.889883
