       142
S0: Total Energy = -5250.15961561
 C         -5.269802    0.441271    0.017346
 C         -4.734322   -0.841874    0.022045
 C         -3.325867   -0.845105    0.011545
 C         -2.774995    0.421880    0.005733
 C         -1.330758    0.369357    0.006508
 C         -0.973169   -1.005358    0.036185
 C          0.360932   -1.382513    0.024645
 S         -3.977367    1.662918    0.009078
 C         -2.227662   -1.911019    0.049225
 H          0.650315   -2.429166    0.038639
 C          5.269870   -0.441489   -0.017838
 C          4.734387    0.841654   -0.022557
 C          3.325933    0.844882   -0.012055
 C          2.775063   -0.422105   -0.006236
 C          1.330826   -0.369584   -0.007010
 C          0.973236    1.005131   -0.036693
 C         -0.360865    1.382286   -0.025149
 S          3.977440   -1.663141   -0.009606
 C          2.227726    1.910793   -0.049751
 H         -0.650247    2.428940   -0.039142
 C         -2.389801   -2.725006    1.351700
 C         -3.351661   -3.746235    1.416961
 C         -3.580833   -4.444166    2.599866
 C         -2.860200   -4.153833    3.767591
 C         -1.909292   -3.130594    3.701920
 C         -1.676804   -2.426535    2.517718
 H         -3.923758   -4.004397    0.530431
 H         -4.333507   -5.229589    2.615890
 H         -1.336514   -2.874207    4.590450
 H         -0.933033   -1.636771    2.513107
 C         -2.199897   -2.809983   -1.204952
 C         -1.510571   -4.032067   -1.190640
 C         -1.409147   -4.813723   -2.340137
 C         -1.993391   -4.410732   -3.548630
 C         -2.675357   -3.188613   -3.561221
 C         -2.777206   -2.401244   -2.413183
 H         -1.055822   -4.384545   -0.269653
 H         -0.867375   -5.756072   -2.295019
 H         -3.137201   -2.842794   -4.483423
 H         -3.312091   -1.458175   -2.465880
 C          2.199962    2.809774    1.204413
 C          1.510608    4.031841    1.190098
 C          1.409185    4.813509    2.339589
 C          1.993458    4.410546    3.548076
 C          2.675453    3.188442    3.560670
 C          2.777301    2.401063    2.412641
 H          1.055835    4.384299    0.269116
 H          0.867393    5.755846    2.294468
 H          3.137321    2.842644    4.482868
 H          3.312210    1.458007    2.465340
 C          2.389865    2.724760   -1.352239
 C          3.351727    3.745991   -1.417516
 C          3.580901    4.443901   -2.600428
 C          2.860271    4.153546   -3.768154
 C          1.909362    3.130314   -3.702466
 C          1.676871    2.426273   -2.518250
 H          3.923819    4.004168   -0.530987
 H          4.333571    5.229329   -2.616462
 H          1.336581    2.873917   -4.590990
 H          0.933094    1.636514   -2.513629
 C         -3.090718   -4.935029    5.039873
 H         -2.577949   -5.905635    5.009516
 H         -2.715755   -4.394157    5.914604
 C         -1.912403   -5.277922   -4.782972
 H         -2.020048   -4.684419   -5.696727
 H         -0.958038   -5.813093   -4.834632
 C          1.912473    5.277742    4.782416
 H          0.958207    5.813099    4.833951
 H          2.019877    4.684208    5.696180
 C          3.090833    4.934701   -5.040452
 H          2.715113    4.394191   -5.915079
 H          2.578809    5.905689   -5.009779
 H          2.708295    6.034568    4.789691
 H          4.155899    5.138287   -5.198093
 H         -4.155694   -5.139390    5.197087
 H         -2.708072   -6.034910   -4.790130
 H         -5.362515   -1.722554    0.033737
 H          5.362578    1.722336   -0.034250
 C         -6.660789    0.838376    0.019007
 C         -7.736759   -0.108228   -0.007130
 C         -7.074817    2.176146    0.046840
 C         -9.103386    0.295028   -0.007870
 C         -8.422504    2.567974    0.045941
 H         -6.326607    2.962353    0.072100
 C         -9.496903    1.667692    0.017231
 H         -8.641991    3.631788    0.068757
 C          6.660861   -0.838577   -0.019465
 C          7.736808    0.108052    0.006657
 C          7.074915   -2.176341   -0.047267
 C          9.103433   -0.295194    0.007446
 C          8.422609   -2.568154   -0.046320
 H          6.326717   -2.962560   -0.072529
 C          9.496979   -1.667845   -0.017566
 H          8.642118   -3.631964   -0.069098
 N         -7.701565   -1.459243   -0.042361
 N         -9.865056   -0.814162   -0.042335
 N         -8.980138   -1.801475   -0.065128
 N          7.701605    1.459072    0.041770
 N          9.865101    0.813996    0.041821
 N          8.980179    1.801311    0.064524
 C        -10.833381    2.198157    0.016047
 C        -12.081687    1.655328   -0.013189
 H        -10.873500    3.286492    0.042719
 S        -12.633243   -0.027655   -0.063596
 C        -13.240005    2.572318   -0.006766
 C        -14.323036    0.491400   -0.077876
 N        -14.453467    1.845406   -0.044658
 O        -13.206221    3.791062    0.025140
 C        -15.331406   -0.466119   -0.119750
 C        -15.722920    2.579496   -0.048066
 C        -14.961277   -1.842515   -0.152178
 C        -16.729943   -0.203740   -0.134131
 H        -16.286794    2.361426   -0.956568
 H        -15.464565    3.637236   -0.017503
 H        -16.317310    2.317355    0.828769
 N        -14.652150   -2.966415   -0.179080
 N        -17.886197   -0.053930   -0.147744
 C         10.833500   -2.198194   -0.016202
 C         12.081711   -1.655171    0.013452
 H         10.873760   -3.286518   -0.043078
 S         12.632951    0.027903    0.064441
 C         13.240185   -2.571962    0.007178
 C         14.322832   -0.490881    0.079237
 N         14.453511   -1.844856    0.045663
 O         13.206614   -3.790702   -0.025074
 C         15.331010    0.466813    0.121786
 C         15.723084   -2.578738    0.049186
 C         14.960602    1.843130    0.154385
 C         16.729590    0.204702    0.136771
 H         16.317800   -2.315980   -0.827240
 H         15.464915   -3.636503    0.017896
 H         16.286541   -2.361121    0.958057
 N         14.651243    2.966964    0.181410
 N         17.885872    0.055157    0.150915
 C         -9.398334   -3.197428   -0.042251
 H         -9.489304   -3.539030    0.992469
 H        -10.363074   -3.272308   -0.542763
 H         -8.644879   -3.786932   -0.563538
 C          9.398385    3.197260    0.041545
 H         10.362619    3.272382    0.543007
 H          9.490401    3.538473   -0.993210
 H          8.644374    3.786916    0.561848
       142
T1: Total Energy = -5250.11476452
 C         -5.252436   -0.454760   -0.021823
 C         -4.707746    0.847890   -0.018233
 C         -3.320129    0.852934   -0.013363
 C         -2.749469   -0.430418   -0.018713
 C         -1.335393   -0.372163   -0.015382
 C         -0.968632    1.017811   -0.030514
 C          0.353488    1.392605   -0.010210
 S         -3.951835   -1.681892   -0.027932
 C         -2.224451    1.921105   -0.042049
 H          0.645817    2.438297   -0.012585
 C          5.252390    0.454727    0.021207
 C          4.707738   -0.847881    0.017499
 C          3.320084   -0.852942    0.012384
 C          2.749446    0.430381    0.017665
 C          1.335343    0.372135    0.014210
 C          0.968590   -1.017834    0.029323
 C         -0.353525   -1.392635    0.009002
 S          3.951809    1.681837    0.027113
 C          2.224414   -1.921122    0.040922
 H         -0.645853   -2.438327    0.011388
 C         -2.386846    2.736435   -1.343910
 C         -3.342577    3.763520   -1.405244
 C         -3.571332    4.461744   -2.587805
 C         -2.857397    4.165174   -3.758286
 C         -1.913736    3.135052   -3.696176
 C         -1.681668    2.430151   -2.512503
 H         -3.909780    4.025928   -0.516985
 H         -4.318502    5.252294   -2.601480
 H         -1.347109    2.873407   -4.586980
 H         -0.943803    1.634796   -2.511206
 C         -2.201836    2.812896    1.216834
 C         -1.519598    4.038968    1.207663
 C         -1.420434    4.813773    2.361749
 C         -1.999613    4.399562    3.569087
 C         -2.673863    3.173205    3.576042
 C         -2.773109    2.391987    2.423609
 H         -1.069470    4.400117    0.287842
 H         -0.884880    5.759771    2.321219
 H         -3.131298    2.818854    4.497058
 H         -3.302492    1.445625    2.473042
 C          2.201911   -2.812835   -1.218020
 C          1.519538   -4.038834   -1.209040
 C          1.420483   -4.813556   -2.363191
 C          1.999910   -4.399332   -3.570406
 C          2.674294   -3.173048   -3.577171
 C          2.773431   -2.391912   -2.424672
 H          1.069211   -4.399989   -0.289319
 H          0.884817   -5.759498   -2.322811
 H          3.131921   -2.818689   -4.498087
 H          3.302921   -1.445602   -2.473956
 C          2.386705   -2.736531    1.342747
 C          3.342421   -3.763630    1.404087
 C          3.571092   -4.461924    2.586624
 C          2.857084   -4.165412    3.757075
 C          1.913439   -3.135277    3.694961
 C          1.681455   -2.430307    2.511312
 H          3.909678   -4.025996    0.515850
 H          4.318251   -5.252484    2.600302
 H          1.346755   -2.873678    4.585742
 H          0.943597   -1.634946    2.510014
 C         -3.088479    4.946519   -5.030157
 H         -2.577497    5.917933   -4.998160
 H         -2.711963    4.406937   -5.904908
 C         -1.920840    5.259684    4.808305
 H         -2.032485    4.661462    5.718387
 H         -0.965825    5.793048    4.865593
 C          1.921251   -5.259367   -4.809692
 H          0.966186   -5.792620   -4.867176
 H          2.033119   -4.661100   -5.719716
 C          3.088079   -4.946830    5.028918
 H          2.711418   -4.407339    5.903663
 H          2.577181   -5.918283    4.996792
 H          2.715646   -6.017573   -4.817711
 H          4.153308   -5.149358    5.186503
 H         -4.153710    5.149122   -5.187631
 H         -2.715319    6.017800    4.816412
 H         -5.343213    1.723217   -0.021137
 H          5.343197   -1.723214    0.020523
 C         -6.620920   -0.839374   -0.020411
 C         -7.704387    0.108520   -0.000613
 C         -7.042103   -2.194332   -0.038664
 C         -9.068380   -0.301114    0.003655
 C         -8.374220   -2.585355   -0.035294
 H         -6.289163   -2.976461   -0.057333
 C         -9.464793   -1.678619   -0.011876
 H         -8.596735   -3.648555   -0.050563
 C          6.620935    0.839376    0.020133
 C          7.704384   -0.108512    0.000555
 C          7.042090    2.194278    0.038589
 C          9.068386    0.301106   -0.003314
 C          8.374258    2.585302    0.035619
 H          6.289161    2.976419    0.057120
 C          9.464781    1.678593    0.012427
 H          8.596759    3.648503    0.051036
 N         -7.673530    1.455640    0.024843
 N         -9.834720    0.802553    0.030561
 N         -8.957747    1.797436    0.046859
 N          7.673523   -1.455643   -0.025012
 N          9.834720   -0.802579   -0.030090
 N          8.957727   -1.797436   -0.046695
 C        -10.786035   -2.205736   -0.006561
 C        -12.047346   -1.660312    0.020041
 H        -10.829886   -3.293841   -0.026222
 S        -12.594223    0.019092    0.061162
 C        -13.199266   -2.572603    0.019043
 C        -14.285481   -0.491792    0.079522
 N        -14.416006   -1.843174    0.053233
 O        -13.169936   -3.794681   -0.006139
 C        -15.292079    0.472056    0.117458
 C        -15.684680   -2.577204    0.059034
 C        -14.917297    1.846415    0.142297
 C        -16.690274    0.213002    0.135288
 H        -16.249248   -2.356767    0.966674
 H        -15.425258   -3.634863    0.031724
 H        -16.279707   -2.318042   -0.818401
 N        -14.603066    2.969402    0.162983
 N        -17.846999    0.064097    0.151459
 C         10.786078    2.205726    0.007511
 C         12.047347    1.660321   -0.018794
 H         10.829905    3.293832    0.027246
 S         12.594263   -0.019092   -0.059853
 C         13.199285    2.572637   -0.017479
 C         14.285517    0.491831   -0.077702
 N         14.416027    1.843223   -0.051352
 O         13.169928    3.794701    0.007799
 C         15.292139   -0.471987   -0.115355
 C         15.684701    2.577259   -0.056829
 C         14.917389   -1.846355   -0.140344
 C         16.690339   -0.212911   -0.132729
 H         16.279476    2.318156    0.820793
 H         15.425271    3.634919   -0.029661
 H         16.249528    2.356763   -0.964294
 N         14.603185   -2.969346   -0.161151
 N         17.847065   -0.063987   -0.148529
 C         -9.378894    3.190852    0.012897
 H         -9.362435    3.560265   -1.016382
 H        -10.391340    3.246907    0.410711
 H         -8.691919    3.774610    0.625877
 C          9.378851   -3.190864   -0.012758
 H         10.391452   -3.246866   -0.410179
 H          9.361979   -3.560405    1.016466
 H          8.692113   -3.774536   -0.626086
       142
S1: Total Energy = -5250.09764692
 C         -5.250416   -0.451094   -0.031922
 C         -4.711864    0.845902   -0.029374
 C         -3.317954    0.851426   -0.022123
 C         -2.751451   -0.429018   -0.023882
 C         -1.334080   -0.372179   -0.016640
 C         -0.968240    1.017404   -0.035040
 C          0.354983    1.392505   -0.012946
 S         -3.954243   -1.677599   -0.033166
 C         -2.223859    1.919685   -0.051430
 H          0.647498    2.438012   -0.018386
 C          5.250382    0.450983    0.032158
 C          4.711831   -0.846014    0.029658
 C          3.317921   -0.851540    0.022463
 C          2.751417    0.428904    0.024231
 C          1.334046    0.372065    0.017015
 C          0.968206   -1.017518    0.035423
 C         -0.355017   -1.392619    0.013328
 S          3.954208    1.677486    0.033491
 C          2.223826   -1.919799    0.051806
 H         -0.647532   -2.438126    0.018766
 C         -2.385532    2.729592   -1.356593
 C         -3.339662    3.757948   -1.421798
 C         -3.567853    4.450920   -2.607499
 C         -2.855163    4.147564   -3.777037
 C         -1.913357    3.115843   -3.710943
 C         -1.681986    2.415925   -2.524359
 H         -3.905836    4.025471   -0.534456
 H         -4.313659    5.242625   -2.624420
 H         -1.347980    2.848972   -4.600939
 H         -0.945999    1.618770   -2.520401
 C         -2.203009    2.813718    1.205628
 C         -1.525282    4.042212    1.194299
 C         -1.428795    4.818648    2.347465
 C         -2.006360    4.403742    3.555443
 C         -2.676067    3.174852    3.564293
 C         -2.772298    2.391685    2.413025
 H         -1.076970    4.404008    0.273851
 H         -0.896844    5.766582    2.305750
 H         -3.132052    2.820107    4.485816
 H         -3.297640    1.443076    2.463890
 C          2.202956   -2.813851   -1.205237
 C          1.525223   -4.042341   -1.193882
 C          1.428718   -4.818794   -2.347036
 C          2.006271   -4.403908   -3.555026
 C          2.675984   -3.175021   -3.563902
 C          2.772233   -2.391838   -2.412647
 H          1.076920   -4.404122   -0.273424
 H          0.896762   -5.766723   -2.305301
 H          3.131960   -2.820291   -4.485436
 H          3.297579   -1.443232   -2.463531
 C          2.385521   -2.729686    1.356980
 C          3.339656   -3.758037    1.422186
 C          3.567867   -4.450993    2.607892
 C          2.855191   -4.147624    3.777436
 C          1.913378   -3.115910    3.711341
 C          1.681988   -2.416008    2.524751
 H          3.905818   -4.025569    0.534838
 H          4.313676   -5.242695    2.624812
 H          1.348011   -2.849032    4.601340
 H          0.945996   -1.618858    2.520792
 C         -3.085731    4.923334   -5.052295
 H         -2.573608    5.894257   -5.024522
 H         -2.710018    4.379475   -5.924699
 C         -1.930657    5.265812    4.793397
 H         -2.039788    4.668463    5.704322
 H         -0.977842    5.803154    4.849592
 C          1.930550   -5.265994   -4.792967
 H          0.977751   -5.803369   -4.849121
 H          2.039628   -4.668653   -5.703904
 C          3.085788   -4.923373    5.052701
 H          2.709939   -4.379577    5.925085
 H          2.573813   -5.894372    5.024885
 H          2.728180   -6.020772   -4.799951
 H          4.150837   -5.126350    5.210724
 H         -4.150760    5.126467   -5.210248
 H         -2.728261    6.020616    4.800360
 H         -5.346722    1.721579   -0.034355
 H          5.346691   -1.721690    0.034613
 C         -6.628145   -0.841557   -0.032357
 C         -7.707050    0.106158   -0.007466
 C         -7.045029   -2.190678   -0.057084
 C         -9.072876   -0.302673   -0.003866
 C         -8.382091   -2.583228   -0.054679
 H         -6.293140   -2.973875   -0.080593
 C         -9.468044   -1.678238   -0.025663
 H         -8.603382   -3.646559   -0.075169
 C          6.628109    0.841449    0.032494
 C          7.707015   -0.106262    0.007542
 C          7.044991    2.190570    0.057164
 C          9.072841    0.302573    0.003825
 C          8.382051    2.583124    0.054650
 H          6.293101    2.973765    0.080713
 C          9.468009    1.678143    0.025565
 H          8.603338    3.646456    0.075099
 N         -7.674883    1.454321    0.024396
 N         -9.837765    0.802839    0.028968
 N         -8.958787    1.795884    0.049134
 N          7.674843   -1.454427   -0.024291
 N          9.837721   -0.802945   -0.029051
 N          8.958743   -1.795992   -0.049123
 C        -10.794433   -2.205048   -0.021181
 C        -12.053717   -1.660463    0.011496
 H        -10.838137   -3.293040   -0.047279
 S        -12.601171    0.018617    0.064375
 C        -13.206361   -2.572182    0.008283
 C        -14.291625   -0.490185    0.084813
 N        -14.421917   -1.841443    0.050929
 O        -13.178837   -3.795117   -0.024598
 C        -15.299496    0.474550    0.131417
 C        -15.690749   -2.574841    0.058022
 C        -14.925581    1.848345    0.164259
 C        -16.697004    0.215353    0.150045
 H        -16.252166   -2.357989    0.968526
 H        -15.431473   -3.632413    0.025282
 H        -16.289061   -2.311738   -0.816042
 N        -14.612133    2.971722    0.191580
 N        -17.853941    0.065505    0.167078
 C         10.794384    2.204997    0.020960
 C         12.053712    1.660509   -0.011815
 H         10.838031    3.292992    0.047030
 S         12.601337   -0.018518   -0.064706
 C         13.206266    2.572343   -0.008725
 C         14.291735    0.490463   -0.085462
 N         14.421892    1.841733   -0.051602
 O         13.178618    3.795276    0.024077
 C         15.299699   -0.474166   -0.132250
 C         15.690645    2.575266   -0.058946
 C         14.925921   -1.848001   -0.165030
 C         16.697176   -0.214823   -0.151108
 H         16.289129    2.312275    0.815035
 H         15.431264    3.632812   -0.026220
 H         16.251934    2.358420   -0.969530
 N         14.612582   -2.971409   -0.192305
 N         17.854094   -0.064851   -0.168332
 C         -9.379099    3.189630    0.022312
 H         -9.374088    3.560534   -1.006629
 H        -10.386965    3.246218    0.431568
 H         -8.684214    3.771490    0.628082
 C          9.379054   -3.189740   -0.022318
 H         10.386980   -3.246297   -0.431428
 H          9.373890   -3.560699    1.006603
 H          8.684264   -3.771576   -0.628222
