       152
S0: Total Energy = -5031.18411497
 S          1.945767   -1.065519   -0.042902
 C          3.237987    0.118725   -0.006480
 C          2.707521    1.394414    0.038257
 H          3.326492    2.281473    0.066643
 C          1.291756    1.450881    0.044886
 C          0.701329    0.181434    0.003714
 C          0.586953    2.771909    0.093677
 C          0.285513    3.456074   -1.110206
 C         -0.303790    4.721467   -1.035909
 H         -0.531559    5.247011   -1.959597
 C         -0.601238    5.334989    0.185786
 C         -0.285114    4.643863    1.357107
 H         -0.501258    5.114801    2.313304
 C          0.305713    3.374824    1.342119
 C          0.618983    2.865569   -2.480055
 H          0.901207    1.818083   -2.333674
 C         -0.581156    2.877492   -3.445020
 H         -0.887091    3.897030   -3.706623
 H         -1.446522    2.366783   -3.009288
 H         -0.317564    2.365889   -4.378157
 C          1.832801    3.581748   -3.106054
 H          2.091235    3.128675   -4.070700
 H          2.711779    3.518747   -2.455019
 H          1.618856    4.643358   -3.278953
 C         -1.244971    6.714198    0.247271
 H         -1.354819    6.970877    1.309516
 C         -2.654286    6.715301   -0.375173
 H         -2.617410    6.476987   -1.444818
 H         -3.121458    7.701512   -0.268928
 H         -3.302191    5.977146    0.110739
 C          0.656870    2.699076    2.666973
 H          0.955057    1.668612    2.449177
 C         -0.539158    2.627297    3.634687
 H         -0.862852    3.622711    3.960078
 H         -0.262286    2.063043    4.532998
 H         -1.396619    2.128745    3.170106
 C          1.862082    3.391269    3.334968
 H          1.631837    4.434638    3.581897
 H          2.738075    3.387964    2.676846
 H          2.133578    2.877296    4.264848
 C         -0.355751    7.793850   -0.398237
 H         -0.218171    7.609362   -1.470282
 H          0.635727    7.821072    0.067098
 H         -0.812370    8.784424   -0.287101
 S         -1.945766    1.065494    0.043039
 C         -3.237990   -0.118741    0.006484
 C         -2.707526   -1.394427   -0.038373
 H         -3.326500   -2.281481   -0.066811
 C         -1.291763   -1.450896   -0.045087
 C         -0.701333   -0.181451   -0.003843
 C         -0.586956   -2.771914   -0.094055
 C         -0.285498   -3.456236    1.109734
 C          0.303831   -4.721606    1.035266
 H          0.531621   -5.247267    1.958882
 C          0.601284   -5.334958   -0.186513
 C          0.285129   -4.643686   -1.357739
 H          0.501268   -5.114498   -2.314000
 C         -0.305723   -3.374661   -1.342580
 C         -0.618972   -2.865913    2.479661
 H         -0.901123   -1.818387    2.333428
 C          0.581122   -2.878059    3.444672
 H          0.887019   -3.897656    3.706090
 H          1.446523   -2.367287    3.009077
 H          0.317508   -2.366629    4.377897
 C         -1.832863   -3.582112    3.105507
 H         -2.091371   -3.129094    4.070158
 H         -2.711780   -3.519057    2.454399
 H         -1.618944   -4.643735    3.278360
 C          1.245071   -6.714133   -0.248187
 H          1.354831   -6.970708   -1.310466
 C          2.654448   -6.715208    0.374121
 H          2.617656   -6.476982    1.443789
 H          3.121668   -7.701384    0.267751
 H          3.302263   -5.976976   -0.111794
 C         -0.656934   -2.698764   -2.667343
 H         -0.955143   -1.668334   -2.449419
 C          0.539057   -2.626840   -3.635090
 H          0.862789   -3.622205   -3.960585
 H          0.262129   -2.062513   -4.533339
 H          1.396513   -2.128292   -3.170494
 C         -1.862149   -3.390917   -3.335377
 H         -1.631876   -4.434248   -3.582443
 H         -2.738115   -3.387725   -2.677219
 H         -2.133701   -2.876838   -4.265183
 C          0.355980   -7.793896    0.397307
 H          0.218504   -7.609529    1.469386
 H         -0.635547   -7.821128   -0.067925
 H          0.812642   -8.784433    0.286022
 C          4.629438   -0.283762   -0.023291
 C          5.708910    0.657463    0.003017
 C          5.034352   -1.622997   -0.067599
 C          7.073447    0.247309   -0.012081
 C          6.380610   -2.021961   -0.081803
 H          4.280989   -2.404312   -0.091376
 C          7.458889   -1.126997   -0.053728
 H          6.594818   -3.086505   -0.115745
 C         -4.629441    0.283744    0.023411
 C         -5.708919   -0.657474   -0.002749
 C         -5.034347    1.622984    0.067752
 C         -7.073455   -0.247323    0.012494
 C         -6.380601    2.021949    0.082079
 H         -4.280978    2.404295    0.091443
 C         -7.458887    1.126987    0.054109
 H         -6.594808    3.086493    0.116016
 N          7.841245    1.352342    0.025562
 N          5.680909    2.008468    0.049945
 N          6.961751    2.343640    0.064613
 N         -5.680930   -2.008484   -0.049603
 N         -7.841262   -1.352353   -0.024983
 N         -6.961775   -2.343656   -0.064100
 C          7.387064    3.737724    0.051233
 H          7.484516    4.084239   -0.981236
 H          6.633683    4.327660    0.571974
 H          8.349839    3.805558    0.556585
 C         -7.387112   -3.737732   -0.050547
 H         -6.633391   -4.327810   -0.570628
 H         -7.485221   -4.083920    0.981968
 H         -8.349562   -3.805751   -0.556501
 C          8.793481   -1.664481   -0.068880
 C         10.043906   -1.127473   -0.049892
 H          8.827848   -2.752806   -0.101817
 S         10.604627    0.552000    0.001472
 C         11.198145   -2.050991   -0.073209
 C         12.292147    0.023876   -0.007405
 N         12.415226   -1.330874   -0.046686
 O         11.156538   -3.269105   -0.109465
 C         13.305507    0.975855    0.025218
 C         13.680937   -2.071585   -0.058976
 C         12.942887    2.354128    0.066880
 C         14.702861    0.706249    0.020721
 H         14.267439   -1.809660   -0.941088
 H         13.416904   -3.127887   -0.090169
 H         14.255203   -1.859261    0.844376
 N         12.639920    3.479439    0.101342
 N         15.858334    0.550405    0.018788
 C         -8.793478    1.664471    0.069287
 C        -10.043908    1.127473    0.050299
 H         -8.827844    2.752797    0.102209
 S        -10.604666   -0.551991   -0.001003
 C        -11.198130    2.051013    0.073605
 C        -12.292177   -0.023835    0.007872
 N        -12.415227    1.330919    0.047169
 O        -11.156503    3.269127    0.109816
 C        -13.305534   -0.975817   -0.024795
 C        -13.680912    2.071667    0.059635
 C        -12.942904   -2.354092   -0.066334
 C        -14.702896   -0.706237   -0.020598
 H        -14.255036    1.859881   -0.843939
 H        -13.416845    3.127942    0.091453
 H        -14.267573    1.809270    0.941495
 N        -12.639943   -3.479410   -0.100617
 N        -15.858386   -0.550519   -0.018968
       152
T1: Total Energy = -5031.14194601
 S         -1.934825   -1.104246    0.045401
 C         -3.235138    0.085148    0.009900
 C         -2.693402    1.387170   -0.036039
 H         -3.326369    2.264237   -0.063484
 C         -1.309209    1.454982   -0.043752
 C         -0.683320    0.160170   -0.002589
 C         -0.601722    2.773633   -0.092189
 C         -0.297729    3.453154    1.113123
 C          0.292145    4.717947    1.039088
 H          0.522196    5.242266    1.962679
 C          0.587971    5.332286   -0.182809
 C          0.271578    4.642475   -1.355027
 H          0.488391    5.113890   -2.310635
 C         -0.319741    3.373921   -1.341163
 C         -0.628943    2.856994    2.481036
 H         -0.897400    1.805549    2.333565
 C          0.566755    2.882529    3.451024
 H          0.856538    3.905238    3.718027
 H          1.441366    2.386101    3.017294
 H          0.305834    2.363887    4.380888
 C         -1.854811    3.556496    3.102226
 H         -2.109966    3.100529    4.066257
 H         -2.730629    3.481412    2.448285
 H         -1.655307    4.620870    3.274825
 C          1.231819    6.711387   -0.243290
 H          1.340536    6.969339   -1.305256
 C          2.641756    6.711085    0.377789
 H          2.606072    6.471575    1.447184
 H          3.108649    7.697404    0.272179
 H          3.289189    5.973691   -0.109858
 C         -0.669712    2.694952   -2.664628
 H         -0.956228    1.660685   -2.446942
 C          0.522383    2.635712   -3.637856
 H          0.832304    3.634217   -3.966698
 H          0.247194    2.066877   -4.533660
 H          1.388110    2.148376   -3.176761
 C         -1.885691    3.374162   -3.326206
 H         -1.667885    4.420515   -3.571399
 H         -2.759047    3.359587   -2.664807
 H         -2.154456    2.859079   -4.256141
 C          0.343028    7.789937    0.404685
 H          0.206976    7.604416    1.476728
 H         -0.648996    7.817747   -0.059398
 H          0.799631    8.780468    0.293899
 S          1.934857    1.104278   -0.045448
 C          3.235161   -0.085126   -0.009933
 C          2.693415   -1.387145    0.035979
 H          3.326374   -2.264217    0.063431
 C          1.309221   -1.454946    0.043660
 C          0.683342   -0.160130    0.002500
 C          0.601718   -2.773590    0.092050
 C          0.297713   -3.453064   -1.113285
 C         -0.292180   -4.717851   -1.039295
 H         -0.522238   -5.242134   -1.962905
 C         -0.588018   -5.332227    0.182580
 C         -0.271617   -4.642461    1.354823
 H         -0.488440   -5.113905    2.310414
 C          0.319722   -3.373916    1.341004
 C          0.628942   -2.856867   -2.481179
 H          0.897430   -1.805435   -2.333673
 C         -0.566761   -2.882336   -3.451162
 H         -0.856579   -3.905028   -3.718189
 H         -1.441354   -2.385891   -3.017416
 H         -0.305827   -2.363679   -4.381014
 C          1.854787   -3.556384   -3.102395
 H          2.109955   -3.100390   -4.066410
 H          2.730608   -3.481350   -2.448451
 H          1.655252   -4.620746   -3.275032
 C         -1.231879   -6.711324    0.243012
 H         -1.340645   -6.969291    1.304970
 C         -2.641787   -6.711013   -0.378130
 H         -2.606056   -6.471494   -1.447522
 H         -3.108687   -7.697332   -0.272550
 H         -3.289241   -5.973622    0.109494
 C          0.669693   -2.694992    2.664492
 H          0.956225   -1.660722    2.446838
 C         -0.522410   -2.635761    3.637711
 H         -0.832347   -3.634269    3.966526
 H         -0.247221   -2.066951    4.533532
 H         -1.388126   -2.148401    3.176622
 C          1.885655   -3.374239    3.326062
 H          1.667830   -4.420596    3.571223
 H          2.759018   -3.359659    2.664673
 H          2.154418   -2.859187    4.256015
 C         -0.343059   -7.789867   -0.404937
 H         -0.206952   -7.604324   -1.476970
 H          0.648942   -7.817686    0.059194
 H         -0.799669   -8.780399   -0.294193
 C         -4.599688   -0.296067    0.027186
 C         -5.687067    0.649094    0.000176
 C         -5.017054   -1.654181    0.073976
 C         -7.049095    0.234728    0.016312
 C         -6.347001   -2.047863    0.088923
 H         -4.260444   -2.432493    0.098460
 C         -7.440454   -1.143657    0.059535
 H         -6.567467   -3.111008    0.124246
 C          4.599714    0.296080   -0.027202
 C          5.687087   -0.649087   -0.000150
 C          5.017088    1.654190   -0.074009
 C          7.049117   -0.234729   -0.016271
 C          6.347038    2.047865   -0.088933
 H          4.260484    2.432506   -0.098524
 C          7.440484    1.143653   -0.059504
 H          6.567512    3.111008   -0.124270
 N         -7.819991    1.334972   -0.022000
 N         -5.661506    1.995218   -0.048179
 N         -6.947311    2.332418   -0.063627
 N          5.661518   -1.995210    0.048229
 N          7.820008   -1.334976    0.022081
 N          6.947322   -2.332416    0.063705
 C         -7.372943    3.725034   -0.049073
 H         -7.356882    4.108878    0.974886
 H         -6.687807    4.301729   -0.670580
 H         -8.385799    3.772485   -0.446978
 C          7.372945   -3.725034    0.049190
 H          6.687831   -4.301704    0.670745
 H          7.356844   -4.108919   -0.974754
 H          8.385816   -3.772473    0.447058
 C         -8.759924   -1.675037    0.075147
 C        -10.022341   -1.133356    0.054198
 H         -8.800221   -2.762873    0.110429
 S        -10.575439    0.542763   -0.001583
 C        -11.171892   -2.050666    0.078934
 C        -12.265439    0.025077    0.006518
 N        -12.390973   -1.326695    0.049574
 O        -11.136084   -3.271616    0.118461
 C        -13.275074    0.984589   -0.030358
 C        -13.657184   -2.065333    0.063855
 C        -12.905225    2.360033   -0.075474
 C        -14.672723    0.720735   -0.027558
 H        -14.244889   -1.798453    0.943791
 H        -13.393889   -3.121724    0.100511
 H        -14.230600   -1.856928   -0.841084
 N        -12.594985    3.483580   -0.112746
 N        -15.828915    0.567851   -0.027275
 C          8.759960    1.675020   -0.075081
 C         10.022366    1.133319   -0.054088
 H          8.800271    2.762856   -0.110360
 S         10.575429   -0.542812    0.001685
 C         11.171935    2.050609   -0.078736
 C         12.265439   -0.025157   -0.006280
 N         12.391000    1.326615   -0.049263
 O         11.136153    3.271561   -0.118193
 C         13.275056   -0.984687    0.030604
 C         13.657226    2.065233   -0.063291
 C         12.905181   -2.360125    0.075699
 C         14.672710   -0.720859    0.027751
 H         14.230616    1.856524    0.841591
 H         13.393952    3.121641   -0.099624
 H         14.244947    1.798626   -0.943302
 N         12.594920   -3.483667    0.112958
 N         15.828904   -0.567996    0.027414
       152
S1: Total Energy = -5031.12093932
 S         -1.936229   -1.091919    0.047937
 C         -3.232022    0.095256    0.016290
 C         -2.696901    1.389073   -0.029641
 H         -3.326859    2.268218   -0.055223
 C         -1.302071    1.453495   -0.039654
 C         -0.688954    0.166401   -0.001128
 C         -0.593654    2.771141   -0.087140
 C         -0.287144    3.448615    1.118942
 C          0.305775    4.712020    1.045821
 H          0.538232    5.234388    1.969915
 C          0.601231    5.327652   -0.175509
 C          0.280569    4.640808   -1.348317
 H          0.496191    5.113563   -2.303525
 C         -0.313924    3.373745   -1.335729
 C         -0.619492    2.852572    2.486639
 H         -0.895361    1.803146    2.338069
 C          0.578397    2.868918    3.454152
 H          0.875972    3.889418    3.720956
 H          1.448817    2.366634    3.018649
 H          0.315802    2.351644    4.384275
 C         -1.839364    3.559389    3.111456
 H         -2.095927    3.103011    4.074882
 H         -2.716885    3.491863    2.458989
 H         -1.632171    4.621920    3.286148
 C          1.248177    6.705318   -0.234704
 H          1.356554    6.964426   -1.296400
 C          2.658593    6.701063    0.385245
 H          2.623337    6.460210    1.454347
 H          3.127402    7.686542    0.280593
 H          3.304167    5.963094   -0.104005
 C         -0.670265    2.699438   -2.659877
 H         -0.962600    1.666433   -2.443599
 C          0.519728    2.635235   -3.635390
 H          0.835210    3.632694   -3.962051
 H          0.239502    2.070494   -4.532184
 H          1.383509    2.141415   -3.177461
 C         -1.883331    3.387282   -3.317979
 H         -1.659392    4.432466   -3.562510
 H         -2.755408    3.377472   -2.654819
 H         -2.157271    2.874948   -4.247886
 C          0.362133    7.784816    0.415491
 H          0.226576    7.598115    1.487387
 H         -0.630182    7.815392   -0.047776
 H          0.820797    8.774474    0.305660
 S          1.936223    1.091910   -0.047974
 C          3.232018   -0.095262   -0.016325
 C          2.696900   -1.389081    0.029577
 H          3.326860   -2.268226    0.055140
 C          1.302070   -1.453506    0.039564
 C          0.688950   -0.166413    0.001051
 C          0.593655   -2.771156    0.087003
 C          0.287135   -3.448583   -1.119102
 C         -0.305780   -4.711992   -1.046025
 H         -0.538243   -5.234326   -1.970137
 C         -0.601225   -5.327672    0.175284
 C         -0.280553   -4.640873    1.348115
 H         -0.496167   -5.113665    2.303307
 C          0.313937   -3.373809    1.335571
 C          0.619474   -2.852492   -2.486780
 H          0.895356   -1.803074   -2.338174
 C         -0.578426   -2.868790   -3.454279
 H         -0.876016   -3.889279   -3.721112
 H         -1.448836   -2.366512   -3.018748
 H         -0.315838   -2.351489   -4.384388
 C          1.839332   -3.559296   -3.111637
 H          2.095893   -3.102880   -4.075046
 H          2.716859   -3.491808   -2.459173
 H          1.632127   -4.621817   -3.286372
 C         -1.248162   -6.705344    0.234432
 H         -1.356554   -6.964482    1.296119
 C         -2.658567   -6.701088   -0.385541
 H         -2.623298   -6.460209   -1.454636
 H         -3.127367   -7.686574   -0.280920
 H         -3.304157   -5.963138    0.103717
 C          0.670284   -2.699547    2.659741
 H          0.962607   -1.666532    2.443498
 C         -0.519700   -2.635390    3.635268
 H         -0.835167   -3.632863    3.961902
 H         -0.239471   -2.070676    4.532078
 H         -1.383491   -2.141565    3.177365
 C          1.883362   -3.387405    3.317809
 H          1.659432   -4.432601    3.562300
 H          2.755434   -3.377561    2.654645
 H          2.157302   -2.875104    4.247734
 C         -0.362095   -7.784815   -0.415778
 H         -0.226520   -7.598081   -1.487666
 H          0.630211   -7.815395    0.047507
 H         -0.820752   -8.774481   -0.305985
 C         -4.606619   -0.294819    0.036759
 C         -5.689693    0.649026    0.006765
 C         -5.018210   -1.647400    0.089079
 C         -7.053450    0.234661    0.024817
 C         -6.352193   -2.043889    0.106277
 H         -4.261837   -2.426030    0.116741
 C         -7.442741   -1.141700    0.073267
 H         -6.570629   -3.107209    0.146037
 C          4.606615    0.294816   -0.036771
 C          5.689690   -0.649026   -0.006752
 C          5.018203    1.647398   -0.089097
 C          7.053447   -0.234656   -0.024766
 C          6.352186    2.043891   -0.106262
 H          4.261828    2.426025   -0.116794
 C          7.442735    1.141706   -0.073208
 H          6.570619    3.107211   -0.146028
 N         -7.823530    1.336240   -0.017523
 N         -5.663615    1.996108   -0.046959
 N         -6.949469    2.332385   -0.063306
 N          5.663614   -1.996108    0.046971
 N          7.823528   -1.336234    0.017585
 N          6.949470   -2.332381    0.063344
 C         -7.375306    3.724891   -0.055343
 H         -7.364984    4.111496    0.967728
 H         -6.686484    4.299725   -0.674472
 H         -8.386021    3.770819   -0.458854
 C          7.375315   -3.724885    0.055377
 H          6.686389   -4.299750    0.674363
 H          7.365165   -4.111437   -0.967716
 H          8.385963   -3.770833    0.459054
 C         -8.766061   -1.673048    0.090118
 C        -10.027867   -1.131726    0.064060
 H         -8.806455   -2.760660    0.130780
 S        -10.580721    0.542688   -0.001853
 C        -11.177666   -2.048362    0.090401
 C        -12.270297    0.028397    0.004011
 N        -12.395788   -1.322778    0.053377
 O        -11.143520   -3.270407    0.136395
 C        -13.280601    0.990148   -0.040315
 C        -13.662243   -2.060743    0.065636
 C        -12.910722    2.364585   -0.091939
 C        -14.677577    0.726999   -0.038099
 H        -14.253059   -1.791111    0.942694
 H        -13.398974   -3.117030    0.106273
 H        -14.232641   -1.854687   -0.841795
 N        -12.600480    3.488294   -0.134634
 N        -15.834105    0.573652   -0.038416
 C          8.766054    1.673057   -0.090011
 C         10.027860    1.131741   -0.063850
 H          8.806446    2.760667   -0.130720
 S         10.580716   -0.542667    0.002192
 C         11.177657    2.048381   -0.090139
 C         12.270291   -0.028374   -0.003724
 N         12.395780    1.322799   -0.053116
 O         11.143510    3.270420   -0.136306
 C         13.280598   -0.990125    0.040559
 C         13.662234    2.060767   -0.065340
 C         12.910722   -2.364558    0.092297
 C         14.677575   -0.726978    0.038141
 H         14.232719    1.854497    0.841985
 H         13.398960    3.117064   -0.105712
 H         14.252965    1.791343   -0.942522
 N         12.600482   -3.488264    0.135086
 N         15.834102   -0.573632    0.038283
