       122
S0: Total Energy = -6094.58500386
 C         -5.585611    2.403561   -0.144202
 C         -5.403597    1.002778   -0.060572
 C         -4.045774    0.632633   -0.042722
 C         -3.216189    1.750534   -0.103914
 S         -4.054127    3.275622   -0.186584
 C         -3.219414   -0.659101    0.061206
 C          5.585571   -2.403447    0.145210
 C          5.403580   -1.002657    0.061611
 C          4.045760   -0.632484    0.043888
 C          3.216164   -1.750378    0.105128
 S          4.054079   -3.275479    0.187725
 C          3.219399    0.659262   -0.059961
 C         -3.553829   -1.348956    1.401634
 C         -4.678428   -2.182128    1.503129
 C         -5.041230   -2.749311    2.722744
 C         -4.296992   -2.511649    3.886657
 C         -3.180004   -1.675671    3.781820
 C         -2.812947   -1.102155    2.563110
 H         -5.273052   -2.401480    0.621475
 H         -5.920316   -3.387968    2.768607
 H         -2.582479   -1.466234    4.666102
 H         -1.943138   -0.453984    2.527159
 C         -3.383387   -1.591242   -1.158829
 C         -2.982594   -2.933625   -1.084637
 C         -3.054714   -3.765277   -2.200661
 C         -3.525714   -3.291604   -3.432647
 C         -3.924774   -1.951986   -3.501625
 C         -3.852559   -1.113888   -2.388114
 H         -2.632823   -3.343631   -0.141932
 H         -2.744419   -4.803649   -2.108307
 H         -4.304605   -1.553813   -4.439668
 H         -4.170986   -0.080704   -2.483963
 C          3.383451    1.591372    1.160100
 C          2.982522    2.933722    1.086053
 C          3.054718    3.765305    2.202126
 C          3.525931    3.291594    3.434013
 C          3.925126    1.952008    3.502848
 C          3.852836    1.113980    2.389292
 H          2.632586    3.343759    0.143425
 H          2.744317    4.803655    2.109885
 H          4.305123    1.553811    4.440814
 H          4.171375    0.080820    2.485021
 C          3.553726    1.349132   -1.400408
 C          4.678412    2.182183   -1.502010
 C          5.041127    2.749378   -2.721641
 C          4.296715    2.511850   -3.885474
 C          3.179650    1.675995   -3.780534
 C          2.812679    1.102466   -2.561802
 H          5.273160    2.401440   -0.620419
 H          5.920274    3.387945   -2.767588
 H          2.581994    1.466661   -4.664752
 H          1.942805    0.454386   -2.525772
 C         -4.676752   -3.155499    5.199159
 H         -4.258411   -2.607468    6.049461
 H         -5.764266   -3.198996    5.323249
 C         -3.582449   -4.191601   -4.644436
 H         -4.300376   -3.822356   -5.383672
 H         -2.603967   -4.251482   -5.139331
 C          3.582747    4.191512    4.645858
 H          2.604358    4.251171    5.140961
 H          4.300897    3.822346    5.384918
 C          4.676390    3.155714   -5.197995
 H          5.763892    3.198991   -5.322267
 H          4.257789    2.607832   -6.048265
 H         -4.303605   -4.186611    5.258099
 H         -3.868987   -5.213157   -4.372051
 H          3.869037    5.213141    4.373489
 H          4.303452    4.186909   -5.256797
 C          1.851693   -1.328690    0.076161
 C          1.805952    0.058210   -0.026230
 C          0.476697    0.520507   -0.039946
 C         -0.476713   -0.520338    0.041273
 C         -1.851715    1.328854   -0.074874
 C         -1.805968   -0.058044    0.027537
 S         -0.288418    2.097117   -0.146445
 S          0.288398   -2.096949    0.147781
 S          6.924494   -0.161376    0.028878
 S         -6.924488    0.161457   -0.027915
 C         -6.918610    2.794852   -0.182127
 C          6.918562   -2.794777    0.182964
 H          7.267987   -3.819149    0.245680
 H         -7.268056    3.819210   -0.244966
 C         -7.810136    1.707202   -0.129948
 C          7.810113   -1.707155    0.130677
 C          9.203204   -1.939120    0.159923
 C         10.352094   -1.167220    0.127956
 H          9.436264   -3.000862    0.225330
 C         11.613512   -1.913286    0.187986
 C         10.362426    0.278893    0.041863
 N         12.798500   -1.144426    0.153988
 O         11.673673   -3.137273    0.263966
 N         11.627850    0.906010    0.018142
 O          9.339693    0.961892   -0.009576
 C         12.836148    0.234703    0.070331
 C         14.068369   -1.886010    0.212641
 C         11.636497    2.375261   -0.068717
 S         14.295675    1.066271    0.033587
 H         14.660151   -1.679640   -0.680842
 H         14.638944   -1.576242    1.089975
 H         13.817890   -2.941609    0.271477
 H         12.149668    2.794646    0.798300
 H         12.160794    2.690319   -0.972574
 H         10.600131    2.700484   -0.094364
 C         -9.203228    1.939093   -0.159829
 C        -10.352089    1.167121   -0.128556
 H         -9.436313    3.000812   -0.225534
 C        -11.613512    1.913075   -0.189841
 C        -10.362389   -0.278969   -0.042061
 N        -12.798464    1.144096   -0.157259
 O        -11.673709    3.137076   -0.265567
 N        -11.627769   -0.906243   -0.020337
 O         -9.339662   -0.961825    0.011333
 C        -12.836066   -0.235076   -0.074299
 C        -14.068338    1.885572   -0.217173
 C        -11.636370   -2.375505    0.066345
 S        -14.295541   -1.066853   -0.040299
 H        -14.637534    1.576617   -1.095699
 H        -14.661455    1.678225    0.675189
 H        -13.817906    2.941259   -0.274606
 H        -12.162429   -2.690734    0.969112
 H        -12.147746   -2.794880   -0.801743
 H        -10.600010   -2.700580    0.094021
       122
T1: Total Energy = -6094.54584015
 C         -5.547536    2.417772   -0.134871
 C         -5.361536    1.005989   -0.050578
 C         -4.023887    0.636784   -0.029220
 C         -3.166964    1.771566   -0.089119
 S         -4.016772    3.300536   -0.174568
 C         -3.208007   -0.662330    0.070052
 C          5.547577   -2.417837    0.134639
 C          5.361557   -1.006099    0.049649
 C          4.023906   -0.636982    0.026978
 C          3.166996   -1.771795    0.086574
 S          4.016833   -3.300692    0.173313
 C          3.208016    0.662069   -0.073221
 C         -3.545708   -1.348826    1.411867
 C         -4.668663   -2.184302    1.513036
 C         -5.035275   -2.744318    2.734653
 C         -4.297132   -2.496724    3.900540
 C         -3.182548   -1.657464    3.795895
 C         -2.812513   -1.089963    2.575450
 H         -5.259106   -2.410515    0.630488
 H         -5.912747   -3.385046    2.780628
 H         -2.590556   -1.439619    4.681763
 H         -1.945500   -0.437857    2.540142
 C         -3.383357   -1.589444   -1.152076
 C         -3.002208   -2.938340   -1.081068
 C         -3.080462   -3.763270   -2.200830
 C         -3.539621   -3.277197   -3.433335
 C         -3.917375   -1.931907   -3.498937
 C         -3.837245   -1.099207   -2.381280
 H         -2.663252   -3.357386   -0.138440
 H         -2.784958   -4.806264   -2.111980
 H         -4.285138   -1.523939   -4.437414
 H         -4.138025   -0.060482   -2.475673
 C          3.382793    1.589758    1.148535
 C          3.002032    2.938708    1.076663
 C          3.079793    3.764136    2.196102
 C          3.538045    3.278519    3.429116
 C          3.915418    1.933156    3.495580
 C          3.835779    1.099969    2.378260
 H          2.663753    3.357393    0.133633
 H          2.784620    4.807167    2.106579
 H          4.282488    1.525527    4.434475
 H          4.136240    0.061212    2.473315
 C          3.546320    1.347949   -1.415217
 C          4.669430    2.183240   -1.516249
 C          5.036616    2.742760   -2.737914
 C          4.298903    2.494843   -3.904009
 C          3.184152    1.655793   -3.799496
 C          2.813541    1.088789   -2.578991
 H          5.259524    2.409724   -0.633536
 H          5.914196    3.383349   -2.783767
 H          2.592472    1.437716   -4.685516
 H          1.946408    0.436839   -2.543803
 C         -4.682089   -3.132352    5.215346
 H         -4.256581   -2.586517    6.063398
 H         -5.769862   -3.163545    5.340819
 C         -3.611007   -4.176168   -4.644945
 H         -4.183633   -3.712047   -5.453734
 H         -2.608643   -4.398413   -5.033476
 C          3.608864    4.178011    4.640373
 H          2.606332    4.400131    5.028548
 H          4.181395    3.714378    5.449511
 C          4.684468    3.129940   -5.218895
 H          5.772302    3.161218   -5.343812
 H          4.259473    2.583680   -6.066930
 H         -4.320376   -4.167364    5.276220
 H         -4.081606   -5.136081   -4.403570
 H          4.079258    5.137953    4.398727
 H          4.322649    4.164878   -5.280415
 C          1.840323   -1.355078    0.063728
 C          1.789734    0.070454   -0.036144
 C          0.492847    0.525414   -0.042145
 C         -0.492826   -0.525721    0.038272
 C         -1.840297    1.354795   -0.067107
 C         -1.789711   -0.070753    0.032526
 S         -0.267481    2.119726   -0.135544
 S          0.267491   -2.120016    0.131826
 S          6.895239   -0.165891    0.019023
 S         -6.895247    0.165877   -0.018765
 C         -6.870533    2.808480   -0.174293
 C          6.870565   -2.808433    0.175503
 H          7.220794   -3.832108    0.240003
 H         -7.220760    3.832199   -0.238059
 C         -7.773565    1.715055   -0.123242
 C          7.773572   -1.714963    0.124949
 C          9.161216   -1.947604    0.159629
 C         10.315144   -1.168580    0.131338
 H          9.396386   -3.008185    0.226808
 C         11.574698   -1.911505    0.197826
 C         10.325647    0.274371    0.043384
 N         12.761238   -1.142342    0.168144
 O         11.636200   -3.136722    0.275622
 N         11.591168    0.904166    0.025837
 O          9.302216    0.959129   -0.015114
 C         12.799389    0.235465    0.084420
 C         14.030064   -1.884488    0.232829
 C         11.597519    2.373031   -0.061906
 S         14.260077    1.069314    0.054800
 H         14.626959   -1.677361   -0.657121
 H         14.596444   -1.576062    1.113453
 H         13.778459   -2.939977    0.289226
 H         12.106032    2.794088    0.807110
 H         12.125706    2.688735   -0.963340
 H         10.560659    2.696245   -0.092689
 C         -9.161224    1.947828   -0.156381
 C        -10.315191    1.168904   -0.127046
 H         -9.396370    3.008451   -0.222954
 C        -11.574747    1.911974   -0.191870
 C        -10.325729   -0.274068   -0.039424
 N        -12.761322    1.142896   -0.161487
 O        -11.636220    3.137226   -0.269153
 N        -11.591303   -0.903714   -0.020199
 O         -9.302291   -0.958959    0.017407
 C        -12.799514   -0.234922   -0.077975
 C        -14.030140    1.885144   -0.225161
 C        -11.597714   -2.372565    0.067750
 S        -14.260243   -1.068672   -0.047624
 H        -14.597121    1.576943   -1.105476
 H        -14.626465    1.677863    0.665135
 H        -13.778500    2.940629   -0.281483
 H        -12.126343   -2.688058    0.968982
 H        -12.105801   -2.793826   -0.801437
 H        -10.560871   -2.695784    0.099017
       122
S1: Total Energy = -6094.52265042
 C         -5.560843    2.411960   -0.115926
 C         -5.377476    1.005573   -0.038908
 C         -4.030486    0.636446   -0.020332
 C         -3.184724    1.765203   -0.074918
 S         -4.030333    3.291907   -0.151406
 C         -3.211763   -0.660448    0.072381
 C          5.560858   -2.411954    0.116057
 C          5.377483   -1.005570    0.039020
 C          4.030492   -0.636454    0.020391
 C          3.184735   -1.765214    0.074962
 S          4.030353   -3.291911    0.151517
 C          3.211767    0.660434   -0.072368
 C         -3.548642   -1.353052    1.410868
 C         -4.671971   -2.188464    1.508359
 C         -5.037646   -2.754972    2.727219
 C         -4.298018   -2.514482    3.893711
 C         -3.182890   -1.675298    3.792679
 C         -2.813794   -1.101169    2.575184
 H         -5.263483   -2.409134    0.625128
 H         -5.915630   -3.395137    2.770624
 H         -2.589834   -1.462844    4.679149
 H         -1.946728   -0.448915    2.542777
 C         -3.381942   -1.582057   -1.154514
 C         -3.001153   -2.930644   -1.088658
 C         -3.076126   -3.750395   -2.213206
 C         -3.530421   -3.258287   -3.444488
 C         -3.909316   -1.912309   -3.504523
 C         -3.832664   -1.085487   -2.383093
 H         -2.666360   -3.354712   -0.146762
 H         -2.782326   -4.794111   -2.128209
 H         -4.275701   -1.500133   -4.441753
 H         -4.134587   -0.046587   -2.472026
 C          3.381893    1.582057    1.154523
 C          3.000945    2.930601    1.088685
 C          3.075856    3.750356    2.213235
 C          3.530240    3.258296    3.444502
 C          3.909287    1.912359    3.504521
 C          3.832697    1.085532    2.383091
 H          2.666072    3.354631    0.146801
 H          2.781933    4.794039    2.128250
 H          4.275743    1.500220    4.441740
 H          4.134738    0.046666    2.472013
 C          3.548690    1.353026   -1.410851
 C          4.672075    2.188362   -1.508338
 C          5.037794    2.754843   -2.727198
 C          4.298157    2.514399   -3.893693
 C          3.182975    1.675286   -3.792667
 C          2.813835    1.101183   -2.575173
 H          5.263596    2.408993   -0.625104
 H          5.915820    3.394949   -2.770599
 H          2.589913    1.462866   -4.679140
 H          1.946731    0.448981   -2.542770
 C         -4.681515   -3.157515    5.205267
 H         -4.266805   -2.608372    6.056559
 H         -5.769352   -3.202450    5.325299
 C         -3.590646   -4.146286   -4.664729
 H         -4.295395   -3.758618   -5.407084
 H         -2.608550   -4.217847   -5.150788
 C          3.590394    4.146292    4.664747
 H          2.608332    4.217630    5.150907
 H          4.295302    3.758769    5.407028
 C          4.681707    3.157401   -5.205249
 H          5.769547    3.202175   -5.325316
 H          4.266888    2.608337   -6.056538
 H         -4.307097   -4.188057    5.265811
 H         -3.896407   -5.165258   -4.404044
 H          3.895904    5.165334    4.404044
 H          4.307443    4.188001   -5.265759
 C          1.843199   -1.344474    0.055748
 C          1.795569    0.066206   -0.037440
 C          0.485885    0.523881   -0.039262
 C         -0.485878   -0.523904    0.039197
 C         -1.843189    1.344455   -0.055768
 C         -1.795562   -0.066226    0.037412
 S         -0.276789    2.111507   -0.126123
 S          0.276798   -2.111532    0.126022
 S          6.908838   -0.165332    0.010862
 S         -6.908838    0.165349   -0.010698
 C         -6.889694    2.805494   -0.154531
 C          6.889712   -2.805478    0.154690
 H          7.238019   -3.830112    0.214367
 H         -7.237994    3.830131   -0.214202
 C         -7.788289    1.715208   -0.109225
 C          7.788300   -1.715186    0.109382
 C          9.180119   -1.946956    0.145676
 C         10.332112   -1.167862    0.122653
 H          9.415226   -3.007780    0.210549
 C         11.592226   -1.909795    0.194163
 C         10.342117    0.275622    0.035448
 N         12.777894   -1.139444    0.170879
 O         11.654221   -3.135866    0.271530
 N         11.607401    0.905409    0.023093
 O          9.317966    0.960331   -0.027179
 C         12.815876    0.238076    0.087527
 C         14.046696   -1.881247    0.241841
 C         11.612556    2.374310   -0.065657
 S         14.277145    1.073716    0.065099
 H         14.647739   -1.674602   -0.645449
 H         14.608927   -1.572311    1.124943
 H         13.794621   -2.936677    0.297535
 H         12.115124    2.796795    0.806132
 H         12.145804    2.689977   -0.964105
 H         10.575349    2.695753   -0.102983
 C         -9.180107    1.946986   -0.145543
 C        -10.332105    1.167898   -0.122575
 H         -9.415206    3.007813   -0.210400
 C        -11.592213    1.909840   -0.194091
 C        -10.342120   -0.275589   -0.035415
 N        -12.777885    1.139494   -0.170866
 O        -11.654200    3.135916   -0.271396
 N        -11.607405   -0.905376   -0.023208
 O         -9.317975   -0.960301    0.027285
 C        -12.815873   -0.238038   -0.087714
 C        -14.046682    1.881308   -0.241798
 C        -11.612567   -2.374285    0.065414
 S        -14.277142   -1.073687   -0.065605
 H        -14.608772    1.572665   -1.125097
 H        -14.647862    1.674357    0.645324
 H        -13.794608    2.936759   -0.297112
 H        -12.146018   -2.690030    0.963712
 H        -12.114932   -2.796703   -0.806526
 H        -10.575366   -2.695722    0.102946
