        90
S0: Total Energy = -3313.96203010
 O        -13.029146    2.918446    0.493449
 O        -13.468925   -1.081332   -1.662962
 C        -12.528825    1.846304    0.171736
 C        -11.150684    1.464888    0.568832
 C        -10.414872    2.338147    1.350795
 H        -10.863275    3.279802    1.648198
 C         -9.115792    1.990639    1.763411
 H         -8.555188    2.667737    2.400423
 C         -8.552842    0.790869    1.374513
 C         -8.718816   -1.380679    0.103416
 C         -9.258318   -0.121076    0.544702
 C        -10.595764    0.222614    0.164074
 C        -11.377064   -0.680155   -0.600097
 C        -12.758153   -0.331140   -1.002258
 C         -9.531496   -2.241869   -0.630302
 H         -9.120825   -3.184815   -0.975542
 C        -10.849254   -1.902815   -0.973277
 H        -11.460919   -2.584078   -1.554842
 N        -13.245153    0.916571   -0.596716
 C        -14.613157    1.247994   -1.012032
 H        -14.684384    1.222486   -2.101751
 H        -15.313012    0.516559   -0.600978
 H        -14.841987    2.242977   -0.638906
 H         -7.559979    0.534715    1.724237
 C         -7.344629   -1.823634    0.388458
 C         -6.954982   -3.075112    0.813255
 S         -5.930688   -0.831120    0.059645
 C         -5.550824   -3.241328    0.899307
 H         -7.666945   -3.849265    1.077376
 C         -4.837772   -2.117966    0.529600
 H         -5.074440   -4.156683    1.231338
 C         -3.384050   -1.955095    0.508176
 C         -2.760937   -0.766956    0.230322
 H         -3.422509    0.078990    0.072862
 C         -1.358737   -0.421284    0.126026
 C         -1.019952    0.963059    0.060572
 C         -0.307117   -1.356929    0.057963
 C          0.307195    1.357588   -0.057338
 C          1.020043   -0.962398   -0.059930
 H         -0.542268   -2.410052    0.077943
 C          1.358837    0.421949   -0.125392
 H          0.542325    2.410714   -0.077353
 C          2.761022    0.767590   -0.229788
 C          3.384226    1.955792   -0.507209
 H          3.422564   -0.078465   -0.072780
 C          4.837959    2.118481   -0.528806
 C          5.551078    3.241848   -0.898351
 S          5.930801    0.831400   -0.059297
 C          6.955242    3.075446   -0.812585
 H          5.074752    4.157325   -1.230128
 C          7.344799    1.823833   -0.388142
 H          7.667250    3.849581   -1.076636
 C         -2.662979   -3.151706    0.833421
 N         -2.124700   -4.146435    1.111782
 C          2.663249    3.152646   -0.831750
 N          2.125053    4.147588   -1.109514
 O          2.057003   -1.840034   -0.137870
 O         -2.056925    1.840694    0.138490
 C          1.789328   -3.237022   -0.024432
 H          2.763253   -3.726230   -0.060831
 H          1.293694   -3.472135    0.924332
 H          1.171536   -3.590352   -0.858145
 C         -1.789185    3.237691    0.025313
 H         -1.171293    3.590816    0.859036
 H         -1.293630    3.472971   -0.923452
 H         -2.763083    3.726938    0.061889
 C          8.718961    1.380589   -0.103372
 C          9.258199    0.121033   -0.545093
 C          9.531847    2.241428    0.630517
 C          8.552460   -0.790542   -1.375087
 C         10.595629   -0.222992   -0.164719
 H          9.121374    3.184350    0.976057
 C         10.849582    1.902042    0.973275
 C          9.115175   -1.990278   -1.764427
 H          7.559586   -0.534114   -1.724583
 C         11.150306   -1.465224   -0.569938
 C         11.377151    0.679413    0.599660
 H         11.461401    2.583020    1.555013
 C         10.414254   -2.338116   -1.352086
 H          8.554389   -2.667097   -2.401577
 C         12.528435   -1.846979   -0.173129
 C         12.758206    0.330017    1.001615
 H         10.862465   -3.279750   -1.649848
 O         13.028549   -2.919100   -0.495236
 N         13.244994   -0.917604    0.595540
 O         13.469127    1.079828    1.662590
 C         14.612971   -1.249401    1.010648
 H         15.312843   -0.517638    0.600218
 H         14.684172   -1.224793    2.100394
 H         14.841785   -2.244090    0.636730
        90
T1: Total Energy = -3313.91854657
 O         12.902993    2.964795   -0.561239
 O         13.453704   -1.033897    1.571605
 C         12.427443    1.883801   -0.231195
 C         11.047405    1.481000   -0.600255
 C         10.283895    2.344556   -1.366653
 H         10.712267    3.293292   -1.670880
 C          8.984724    1.975842   -1.756477
 H          8.401925    2.642154   -2.384831
 C          8.448078    0.766468   -1.357784
 C          8.666540   -1.404256   -0.085358
 C          9.179008   -0.134017   -0.538985
 C         10.519737    0.229637   -0.186681
 C         11.333882   -0.661726    0.556335
 C         12.716539   -0.292216    0.929900
 C          9.518023   -2.255433    0.623591
 H          9.133197   -3.203490    0.983687
 C         10.835018   -1.896073    0.935634
 H         11.470639   -2.568424    1.501640
 N         13.174502    0.965017    0.519887
 C         14.545191    1.317751    0.907711
 H         14.642326    1.277417    1.994868
 H         15.249926    0.606999    0.469317
 H         14.745329    2.322431    0.544198
 H          7.456064    0.496049   -1.698084
 C          7.297300   -1.869242   -0.313157
 C          6.911133   -3.176222   -0.585190
 S          5.873268   -0.855289   -0.107530
 C          5.523860   -3.367414   -0.649001
 H          7.631030   -3.967794   -0.760589
 C          4.783525   -2.204654   -0.411033
 H          5.055290   -4.319212   -0.870139
 C          3.357272   -2.059948   -0.400164
 C          2.723199   -0.814370   -0.170745
 H          3.405400    0.016466   -0.030067
 C          1.370026   -0.463826   -0.096239
 C          1.035129    0.941160    0.137934
 C          0.265557   -1.364725   -0.225967
 C         -0.265568    1.364825    0.226078
 C         -1.035140   -0.941059   -0.137830
 H          0.469338   -2.410243   -0.395419
 C         -1.370037    0.463926    0.096342
 H         -0.469348    2.410341    0.395531
 C         -2.723213    0.814463    0.170838
 C         -3.357306    2.060028    0.400278
 H         -3.405405   -0.016377    0.030138
 C         -4.783562    2.204711    0.411131
 C         -5.523920    3.367451    0.649122
 S         -5.873277    0.855340    0.107549
 C         -6.911190    3.176236    0.585287
 H         -5.055370    4.319248    0.870304
 C         -7.297331    1.869256    0.313217
 H         -7.631103    3.967789    0.760706
 C          2.641854   -3.268479   -0.642811
 N          2.103024   -4.283624   -0.848468
 C         -2.641915    3.268563    0.642984
 N         -2.103128    4.283720    0.848695
 O         -2.102884   -1.763859   -0.253679
 O          2.102872    1.763960    0.253787
 C         -1.884224   -3.156205   -0.486756
 H         -2.876865   -3.602471   -0.549373
 H         -1.344820   -3.316888   -1.426568
 H         -1.325133   -3.608748    0.339576
 C          1.884208    3.156305    0.486868
 H          1.325123    3.608851   -0.339467
 H          1.344796    3.316983    1.426676
 H          2.876848    3.602572    0.549494
 C         -8.666559    1.404251    0.085390
 C         -9.179006    0.133982    0.538960
 C         -9.518053    2.255440   -0.623531
 C         -8.448070   -0.766519    1.357737
 C        -10.519721   -0.229689    0.186619
 H         -9.133244    3.203523   -0.983577
 C        -10.835037    1.896066   -0.935601
 C         -8.984692   -1.975926    1.756363
 H         -7.456072   -0.496088    1.698071
 C        -11.047360   -1.481089    0.600115
 C        -11.333880    0.661694   -0.556358
 H        -11.470671    2.568433   -1.501575
 C        -10.283842   -2.344660    1.366489
 H         -8.401888   -2.642251    2.384697
 C        -12.427363   -1.883931    0.230968
 C        -12.716540    0.292188   -0.929915
 H        -10.712191   -3.293427    1.670653
 O        -12.902899   -2.964943    0.560974
 N        -13.174449   -0.965111   -0.520044
 O        -13.453663    1.033821   -1.571725
 C        -14.545108   -1.317877   -0.907942
 H        -15.249890   -0.607200   -0.469504
 H        -14.642214   -1.277448   -1.995099
 H        -14.745207   -2.322602   -0.544530
        90
S1: Total Energy = -3313.89215680
 O         12.854739    3.044818   -0.383488
 O         13.536843   -1.131835    1.335329
 C         12.405387    1.928449   -0.140303
 C         11.018105    1.541285   -0.492250
 C         10.217540    2.462375   -1.149734
 H         10.625694    3.440283   -1.380266
 C          8.913296    2.110826   -1.527010
 H          8.300200    2.819488   -2.075172
 C          8.404147    0.860194   -1.218743
 C          8.680142   -1.413504   -0.143646
 C          9.166765   -0.098291   -0.506918
 C         10.519746    0.249581   -0.175785
 C         11.374428   -0.693751    0.446146
 C         12.763548   -0.343603    0.795899
 C          9.583661   -2.317406    0.442665
 H          9.228482   -3.298250    0.738364
 C         10.902642   -1.970519    0.727958
 H         11.569609   -2.681783    1.202846
 N         13.191868    0.953983    0.488305
 C         14.573236    1.287391    0.852535
 H         14.713166    1.157824    1.928169
 H         15.265597    0.622534    0.330531
 H         14.751939    2.320915    0.567048
 H          7.407178    0.610096   -1.558866
 C          7.312973   -1.871006   -0.319072
 C          6.910236   -3.192590   -0.529380
 S          5.889029   -0.847111   -0.140223
 C          5.526433   -3.380279   -0.560793
 H          7.619934   -3.995719   -0.690030
 C          4.793252   -2.205056   -0.362360
 H          5.052256   -4.339584   -0.732256
 C          3.364532   -2.055199   -0.338235
 C          2.735977   -0.820712   -0.149440
 H          3.411652    0.019546   -0.035058
 C          1.364024   -0.462631   -0.083075
 C          1.039235    0.937117    0.101492
 C          0.271769   -1.364412   -0.178250
 C         -0.271826    1.364362    0.179229
 C         -1.039292   -0.937166   -0.100518
 H          0.474414   -2.415232   -0.312362
 C         -1.364081    0.462582    0.084045
 H         -0.474475    2.415185    0.313332
 C         -2.736033    0.820670    0.150369
 C         -3.364582    2.055142    0.339278
 H         -3.411710   -0.019568    0.035853
 C         -4.793303    2.205025    0.363237
 C         -5.526495    3.380211    0.561855
 S         -5.889067    0.847159    0.140561
 C         -6.910296    3.192550    0.530193
 H         -5.052329    4.339462    0.733647
 C         -7.313021    1.871027    0.319471
 H         -7.620005    3.995647    0.690961
 C          2.645390   -3.276622   -0.526493
 N          2.102808   -4.296852   -0.685674
 C         -2.645432    3.276506    0.527877
 N         -2.102828    4.296684    0.687324
 O         -2.100668   -1.771150   -0.186355
 O          2.100612    1.771099    0.187330
 C         -1.877647   -3.170345   -0.375512
 H         -2.869350   -3.620392   -0.421090
 H         -1.341005   -3.359135   -1.311488
 H         -1.315829   -3.594502    0.463690
 C          1.877595    3.170294    0.376489
 H          1.315790    3.594457   -0.462720
 H          1.340940    3.359083    1.312458
 H          2.869300    3.620337    0.422082
 C         -8.680164    1.413572    0.143729
 C         -9.166781    0.098207    0.506447
 C         -9.583655    2.317673   -0.442321
 C         -8.404186   -0.860532    1.217949
 C        -10.519721   -0.249579    0.175061
 H         -9.228483    3.298644   -0.737604
 C        -10.902599    1.970855   -0.727867
 C         -8.913320   -2.111301    1.525689
 H         -7.407247   -0.610537    1.558237
 C        -11.018066   -1.541420    0.490986
 C        -11.374377    0.693967   -0.446583
 H        -11.569545    2.682283   -1.202541
 C        -10.217526   -2.462741    1.148176
 H         -8.300242   -2.820159    2.073617
 C        -12.405309   -1.928488    0.138778
 C        -12.763454    0.343908   -0.796597
 H        -10.625668   -3.440751    1.378293
 O        -12.854649   -3.044963    0.381500
 N        -13.191767   -0.953803   -0.489518
 O        -13.536722    1.132316   -1.335810
 C        -14.573096   -1.287110   -0.853987
 H        -15.265506   -0.622380   -0.331888
 H        -14.712910   -1.157266   -1.929604
 H        -14.751834   -2.320708   -0.568791
