        80
S0: Total Energy = -2934.33332723
 6          5.211332   -0.815371    0.000071
 6          4.367675   -1.945324    0.000142
 6          3.012402   -1.626264    0.000134
 6          2.794260   -0.249633    0.000055
 6          1.379860    0.041241    0.000037
 6          0.703150   -1.212022    0.000110
 6         -0.681628   -1.259692    0.000106
16          4.245547    0.681097    0.000000
 6          1.694231   -2.383809    0.000184
 1          4.776466   -2.950676    0.000187
 1         -1.215851   -2.206045    0.000160
 6         -5.211332    0.815371   -0.000041
 6         -4.367675    1.945324   -0.000109
 6         -3.012402    1.626264   -0.000085
 6         -2.794260    0.249633    0.000002
 6         -1.379860   -0.041241    0.000028
 6         -0.703150    1.212022   -0.000046
 6          0.681628    1.259692   -0.000040
16         -4.245547   -0.681097    0.000051
 6         -1.694231    2.383809   -0.000127
 1         -4.776466    2.950676   -0.000168
 1          1.215851    2.206045   -0.000096
 6          6.620172   -0.975057    0.000030
 6          7.691089   -0.103091   -0.000030
 6          7.604662    1.374902    0.000028
 8          6.587950    2.062942    0.000052
 6          8.992359    1.886129    0.000072
 6          9.415573    3.208126    0.000161
 6         10.789854    3.458111    0.000200
 6         11.697088    2.391525    0.000151
 6         11.265444    1.060750    0.000057
 6          9.889939    0.802084    0.000016
 6          9.111255   -0.464711   -0.000092
 6          9.675137   -1.730969   -0.000266
 6         11.083447   -1.970484   -0.000300
 7         12.219993   -2.228190   -0.000333
 6          8.931671   -2.950587   -0.000462
 7          8.374501   -3.974623   -0.000633
 1          8.687223    4.013247    0.000199
 1         11.158438    4.479537    0.000270
 1         12.763482    2.596751    0.000185
 1         12.001106    0.268362    0.000023
 1          6.872462   -2.029643    0.000057
 6         -6.620172    0.975057   -0.000033
 6         -7.691089    0.103091    0.000018
 6         -7.604662   -1.374902    0.000023
 8         -6.587950   -2.062942    0.000036
 6         -8.992359   -1.886129   -0.000010
 6         -9.415573   -3.208126   -0.000038
 6        -10.789854   -3.458111   -0.000075
 6        -11.697088   -2.391525   -0.000083
 6        -11.265444   -1.060750   -0.000052
 6         -9.889939   -0.802084   -0.000015
 6         -9.111255    0.464711    0.000031
 6         -9.675137    1.730969    0.000104
 6        -11.083447    1.970484    0.000102
 7        -12.219993    2.228190    0.000103
 6         -8.931671    2.950587    0.000207
 7         -8.374501    3.974623    0.000296
 1         -8.687224   -4.013247   -0.000031
 1        -11.158438   -4.479537   -0.000098
 1        -12.763482   -2.596751   -0.000115
 1        -12.001106   -0.268362   -0.000062
 1         -6.872462    2.029643   -0.000082
 6          1.538449   -3.254976   -1.267128
 1          2.298645   -4.043625   -1.282954
 1          0.553812   -3.734753   -1.284428
 1          1.645197   -2.655168   -2.176395
 6          1.538453   -3.254809    1.267610
 1          1.645207   -2.654882    2.176798
 1          0.553815   -3.734582    1.284979
 1          2.298649   -4.043457    1.283536
 6         -1.538457    3.254978    1.267184
 1         -0.553820    3.734755    1.284490
 1         -2.298653    4.043627    1.283004
 1         -1.645211    2.655172    2.176452
 6         -1.538445    3.254807   -1.267554
 1         -2.298640    4.043455   -1.283486
 1         -0.553807    3.734579   -1.284917
 1         -1.645194    2.654878   -2.176742
        80
T1: Total Energy = -2934.28607377
 6         -5.195411    0.817297    0.000114
 6         -4.335768    1.960588    0.000159
 6         -2.998103    1.642751    0.000101
 6         -2.766728    0.245494    0.000015
 6         -1.388378   -0.038001   -0.000055
 6         -0.688954    1.228509   -0.000006
 6          0.680229    1.272433   -0.000047
16         -4.236995   -0.688345    0.000018
 6         -1.680729    2.400287    0.000100
 1         -4.748067    2.964004    0.000220
 1          1.221102    2.214701   -0.000008
 6          5.195411   -0.817296   -0.000190
 6          4.335767   -1.960587   -0.000260
 6          2.998102   -1.642750   -0.000245
 6          2.766728   -0.245492   -0.000174
 6          1.388378    0.038003   -0.000133
 6          0.688954   -1.228508   -0.000184
 6         -0.680230   -1.272432   -0.000147
16          4.236995    0.688346   -0.000136
 6          1.680729   -2.400286   -0.000274
 1          4.748066   -2.964004   -0.000299
 1         -1.221102   -2.214699   -0.000181
 6         -6.592631    0.982624    0.000112
 6         -7.674355    0.101958    0.000067
 6         -7.589691   -1.380016    0.000156
 8         -6.572154   -2.066400    0.000197
 6         -8.976442   -1.891045    0.000202
 6         -9.402007   -3.211414    0.000311
 6        -10.777971   -3.458828    0.000334
 6        -11.680241   -2.389556    0.000243
 6        -11.244516   -1.058217    0.000129
 6         -9.869784   -0.803302    0.000112
 6         -9.083406    0.460704   -0.000012
 6         -9.646252    1.736193   -0.000210
 6        -11.052334    1.976525   -0.000234
 7        -12.189480    2.235226   -0.000257
 6         -8.905121    2.954898   -0.000443
 7         -8.353579    3.982915   -0.000646
 1         -8.675638   -4.018427    0.000375
 1        -11.149139   -4.479267    0.000419
 1        -12.747531   -2.590675    0.000260
 1        -11.978421   -0.264170    0.000063
 1         -6.847864    2.035616    0.000149
 6          6.592631   -0.982624   -0.000129
 6          7.674355   -0.101958   -0.000038
 6          7.589692    1.380016   -0.000087
 8          6.572154    2.066401   -0.000183
 6          8.976443    1.891044   -0.000009
 6          9.402008    3.211413   -0.000033
 6         10.777973    3.458827    0.000060
 6         11.680242    2.389554    0.000179
 6         11.244516    1.058215    0.000203
 6          9.869784    0.803301    0.000103
 6          9.083406   -0.460704    0.000102
 6          9.646252   -1.736194    0.000235
 6         11.052334   -1.976527    0.000352
 7         12.189479   -2.235228    0.000449
 6          8.905120   -2.954899    0.000283
 7          8.353578   -3.982915    0.000333
 1          8.675640    4.018426   -0.000121
 1         11.149141    4.479265    0.000044
 1         12.747532    2.590673    0.000254
 1         11.978421    0.264168    0.000294
 1          6.847864   -2.035616   -0.000148
 6         -1.527659    3.270478   -1.267909
 1         -2.290899    4.055875   -1.283654
 1         -0.544338    3.752614   -1.284273
 1         -1.632226    2.669963   -2.176869
 6         -1.527569    3.270315    1.268210
 1         -1.632078    2.669684    2.177100
 1         -0.544245    3.752443    1.284569
 1         -2.290805    4.055714    1.284106
 6          1.527631   -3.270481    1.267728
 1          0.544310   -3.752617    1.284069
 1          2.290871   -4.055879    1.283487
 1          1.632179   -2.669970    2.176693
 6          1.527596   -3.270309   -1.268391
 1          2.290833   -4.055707   -1.284273
 1          0.544272   -3.752437   -1.284772
 1          1.632124   -2.669675   -2.177277
        80
S1: Total Energy = -2934.26556827
 6         -5.196296    0.820043    0.000279
 6         -4.345354    1.957204    0.000393
 6         -2.999329    1.637752    0.000432
 6         -2.773910    0.247536    0.000353
 6         -1.385207   -0.038817    0.000356
 6         -0.691791    1.224782    0.000439
 6          0.681960    1.269227    0.000423
16         -4.238391   -0.684289    0.000258
 6         -1.683078    2.396123    0.000517
 1         -4.755432    2.961499    0.000412
 1          1.221750    2.211998    0.000478
 6          5.196296   -0.820043    0.000033
 6          4.345354   -1.957204   -0.000014
 6          2.999328   -1.637752    0.000094
 6          2.773910   -0.247536    0.000226
 6          1.385206    0.038817    0.000307
 6          0.691791   -1.224782    0.000227
 6         -0.681960   -1.269227    0.000258
16          4.238391    0.684289    0.000219
 6          1.683078   -2.396123    0.000089
 1          4.755432   -2.961499   -0.000123
 1         -1.221750   -2.211998    0.000193
 6         -6.602831    0.983311    0.000115
 6         -7.677586    0.104880   -0.000031
 6         -7.588371   -1.377391    0.000160
 8         -6.567672   -2.059771    0.000347
 6         -8.972754   -1.891445    0.000119
 6         -9.394607   -3.212739    0.000296
 6        -10.770175   -3.464636    0.000230
 6        -11.675587   -2.397226   -0.000010
 6        -11.244784   -1.064766   -0.000198
 6         -9.869672   -0.803896   -0.000137
 6         -9.092397    0.459922   -0.000311
 6         -9.657212    1.736582   -0.000764
 6        -11.062773    1.974730   -0.000996
 7        -12.201437    2.229498   -0.001190
 6         -8.917057    2.954502   -0.001123
 7         -8.361816    3.981371   -0.001447
 1         -8.665708   -4.017525    0.000482
 1        -11.138530   -4.486093    0.000367
 1        -12.742276   -2.601983   -0.000053
 1        -11.980840   -0.272672   -0.000381
 1         -6.857257    2.036742    0.000092
 6          6.602831   -0.983311   -0.000060
 6          7.677586   -0.104880   -0.000057
 6          7.588372    1.377391    0.000029
 8          6.567672    2.059771    0.000149
 6          8.972754    1.891445   -0.000056
 6          9.394608    3.212739   -0.000041
 6         10.770175    3.464636   -0.000145
 6         11.675587    2.397226   -0.000259
 6         11.244784    1.064766   -0.000273
 6          9.869672    0.803896   -0.000170
 6          9.092397   -0.459922   -0.000163
 6          9.657212   -1.736582   -0.000224
 6         11.062773   -1.974730   -0.000311
 7         12.201437   -2.229498   -0.000387
 6          8.917057   -2.954502   -0.000186
 7          8.361816   -3.981371   -0.000154
 1          8.665708    4.017525    0.000049
 1         11.138530    4.486093   -0.000139
 1         12.742276    2.601983   -0.000341
 1         11.980840    0.272671   -0.000367
 1          6.857257   -2.036742   -0.000153
 6         -1.529240    3.266400   -1.267636
 1         -2.292815    4.051414   -1.283452
 1         -0.546344    3.749416   -1.283281
 1         -1.633152    2.665987   -2.176699
 6         -1.529294    3.266184    1.268824
 1         -1.633246    2.665617    2.177780
 1         -0.546398    3.749196    1.284593
 1         -2.292870    4.051195    1.284737
 6          1.529322   -3.266403    1.268250
 1          0.546429   -3.749421    1.283956
 1          2.292900   -4.051414    1.284016
 1          1.633290   -2.665991    2.177308
 6          1.529212   -3.266182   -1.268209
 1          2.292785   -4.051194   -1.284174
 1          0.546314   -3.749191   -1.283918
 1          1.633108   -2.665613   -2.177171
