        92
S0: Total Energy = -7042.04033165
 C         14.130870   -0.935271   -0.004009
 C         12.751040   -0.561221   -0.011061
 C         11.652231   -1.417162   -0.023156
 C         14.680307   -2.212347    0.067851
 C         11.553080   -2.884055   -0.066689
 C         14.030262   -3.540321    0.121393
 N         12.651553   -3.753084   -0.107380
 O         14.736348   -4.526009    0.315151
 O         10.417502   -3.368085   -0.084198
 C         10.438836   -0.668902   -0.010621
 C         16.112563   -2.185465    0.097604
 C         16.632460   -0.928859    0.038218
 C         10.599443    0.704503    0.007806
 S         12.279865    1.141224    0.017761
 S         15.392841    0.278682   -0.045831
 C         12.281074   -5.181152   -0.226111
 H         11.379175   -5.252146   -0.827869
 H         13.108118   -5.712041   -0.689659
 H         12.088443   -5.612463    0.760786
 S          8.759846   -1.107821   -0.019543
 C          9.386925    1.452580    0.022595
 C          8.286867    0.594884    0.011312
 C          9.486110    2.918937    0.066793
 C          6.910300    0.967081    0.008275
 N          8.386690    3.788824    0.119078
 O         10.620749    3.404478    0.076119
 C          6.359678    2.245736   -0.052119
 S          5.655550   -0.253914    0.044911
 C          7.008357    3.577275   -0.095664
 C          8.756928    5.217056    0.240797
 C          4.938174    2.223007   -0.077831
 C          4.389542    0.962498   -0.026241
 O          6.295648    4.561840   -0.269909
 H          7.938393    5.743194    0.724578
 H          9.670357    5.285093    0.824963
 H          8.928622    5.655225   -0.746869
 H         17.672272   -0.631176    0.034991
 C          2.997019    0.600204   -0.018447
 C          2.430974   -0.652803    0.025847
 S          1.721139    1.811394   -0.063846
 C          1.019328   -0.655204    0.023569
 C          0.449188    0.595884   -0.022604
 C         -0.944433    0.953524   -0.034980
 C         -1.496896    2.212231   -0.091254
 S         -2.206775   -0.266656    0.036492
 C         -2.918379    2.230756   -0.068715
 C         -3.465301    0.950433   -0.005977
 C         -3.570816    3.560335   -0.117478
 C         -4.840438    0.574232   -0.004403
 N         -4.950350    3.768587    0.092561
 O         -2.860389    4.546419   -0.292402
 C         -5.943153    1.428908    0.001999
 S         -5.308687   -1.130076   -0.029429
 C         -6.046868    2.895196    0.040738
 C         -5.325263    5.196149    0.208282
 C         -7.153222    0.677759   -0.011990
 C         -6.989075   -0.695829   -0.025422
 O         -7.183076    3.377006    0.045693
 H         -6.240690    5.263424    0.789385
 H         -4.509810    5.726388    0.692784
 H         -5.495228    5.630334   -0.781431
 S         -8.834363    1.111334   -0.006442
 C         -8.199280   -1.447485   -0.038295
 C         -9.301992   -0.593246   -0.029622
 C         -8.095501   -2.913215   -0.077386
 C        -10.677399   -0.969546   -0.019726
 N         -9.192396   -3.785961   -0.129605
 O         -6.959008   -3.395113   -0.083918
 C        -11.224164   -2.248963    0.046676
 S        -11.936712    0.247239   -0.049317
 C        -10.571668   -3.578304    0.086116
 C         -8.819128   -5.213310   -0.251323
 C        -12.646650   -2.229240    0.083263
 C        -13.198298   -0.971364    0.034893
 O        -11.280460   -4.566064    0.259268
 H         -9.632502   -5.739527   -0.743833
 H         -7.900368   -5.278658   -0.827270
 H         -8.656150   -5.653851    0.736774
 C        -14.594774   -0.608399    0.043858
 C        -15.159458    0.642792   -0.007790
 S        -15.874934   -1.811402    0.130390
 C        -16.580248    0.647284    0.020099
 C        -17.120006   -0.600160    0.093921
 H        -18.164333   -0.873956    0.128597
 H         16.702891   -3.089551    0.156773
 H          4.359974    3.136416   -0.129817
 H         -0.921334    3.127232   -0.144522
 H        -13.223066   -3.143311    0.140805
 F          3.138913   -1.789516    0.068984
 F          0.315085   -1.794288    0.064495
 F        -14.449654    1.779263   -0.079254
 F        -17.274449    1.790145   -0.024054
        92
T1: Total Energy = -7041.99216465
 C        -14.124649   -0.852543    0.143774
 C        -12.742020   -0.501813    0.118934
 C        -11.655695   -1.376239    0.064136
 C        -14.699420   -2.119598    0.061874
 C        -11.581494   -2.845762    0.054178
 C        -14.076087   -3.457232   -0.038175
 N        -12.691907   -3.697662    0.121255
 O        -14.807712   -4.427552   -0.215052
 O        -10.455196   -3.348589    0.003890
 C        -10.433139   -0.650450    0.034067
 C        -16.130442   -2.066935    0.076679
 C        -16.626453   -0.802872    0.177418
 C        -10.569813    0.729850    0.068170
 S        -12.241809    1.194359    0.133639
 S        -15.364515    0.382047    0.248142
 C        -12.340743   -5.134139    0.187119
 H        -11.413842   -5.235095    0.745022
 H        -13.154894   -5.663600    0.674392
 H        -12.200305   -5.542609   -0.818145
 S         -8.763490   -1.120443   -0.033269
 C         -9.352833    1.458739    0.033923
 C         -8.258227    0.579780   -0.020048
 C         -9.431696    2.924305    0.037156
 C         -6.890237    0.923019   -0.042508
 N         -8.321375    3.781153   -0.054702
 O        -10.557625    3.427364    0.099261
 C         -6.310558    2.204193    0.024037
 S         -5.651002   -0.322583   -0.123699
 C         -6.940460    3.547829    0.093512
 C         -8.669658    5.217685   -0.139160
 C         -4.906989    2.163105    0.018625
 C         -4.360072    0.881800   -0.062754
 O         -6.205821    4.521102    0.236028
 H         -7.894397    5.726639   -0.706541
 H         -9.636540    5.306338   -0.625442
 H         -8.725472    5.659081    0.860281
 H        -17.660505   -0.488281    0.217462
 C         -2.995002    0.532774   -0.098608
 C         -2.420361   -0.743837   -0.176336
 S         -1.705754    1.745936   -0.047366
 C         -1.036532   -0.758429   -0.193932
 C         -0.433622    0.510955   -0.131064
 C          0.927981    0.831485   -0.128773
 C          1.497910    2.117664   -0.066489
 S          2.205676   -0.393602   -0.211599
 C          2.887040    2.150996   -0.090100
 C          3.466094    0.848896   -0.157497
 C          3.527498    3.492018   -0.056573
 C          4.810871    0.504171   -0.145028
 N          4.908983    3.712597   -0.214951
 O          2.800907    4.474322    0.065362
 C          5.925794    1.386159   -0.085679
 S          5.316559   -1.207730   -0.161666
 C          6.012760    2.848968   -0.090923
 C          5.268156    5.143778   -0.331619
 C          7.126198    0.656261   -0.040790
 C          6.986974   -0.736394   -0.077172
 O          7.140256    3.348381   -0.015396
 H          6.239037    5.213704   -0.813150
 H          4.501360    5.644145   -0.918029
 H          5.320350    5.610921    0.656287
 S          8.798319    1.119803    0.041071
 C          8.197256   -1.459746   -0.034651
 C          9.297429   -0.584247    0.029007
 C          8.118556   -2.928981   -0.041622
 C         10.663985   -0.936406    0.058627
 N          9.224643   -3.784454    0.067913
 O          6.992978   -3.429222   -0.119889
 C         11.238578   -2.213854    0.000628
 S         11.907927    0.302219    0.138757
 C         10.611317   -3.552850   -0.065127
 C          8.870570   -5.219280    0.154558
 C         12.655036   -2.168776    0.012403
 C         13.188453   -0.899927    0.089242
 O         11.344150   -4.530456   -0.193442
 H          9.651464   -5.732371    0.709774
 H          7.910018   -5.304943    0.654380
 H          8.797204   -5.658760   -0.844677
 C         14.576474   -0.522685    0.131636
 C         15.125104    0.736496    0.209813
 S         15.874599   -1.710567    0.087382
 C         16.544537    0.757345    0.234388
 C         17.101584   -0.484144    0.175020
 H         18.149945   -0.744517    0.177209
 H        -16.738379   -2.959206    0.017166
 H         -4.313531    3.066712    0.070507
 H          0.909975    3.024953   -0.009769
 H         13.248932   -3.072486   -0.031176
 F         -3.153969   -1.861770   -0.229454
 F         -0.326493   -1.890027   -0.265000
 F         14.399484    1.863364    0.260260
 F         17.224065    1.907023    0.309048
        92
S1: Total Energy = -7041.97395582
 C        -14.116330   -0.861240    0.151774
 C        -12.739568   -0.509560    0.123658
 C        -11.648374   -1.384387    0.063692
 C        -14.691822   -2.132868    0.089627
 C        -11.572986   -2.854098    0.058411
 C        -14.068663   -3.470345    0.016797
 N        -12.680721   -3.706065    0.157619
 O        -14.800194   -4.447488   -0.124126
 O        -10.446870   -3.355592   -0.010795
 C        -10.430414   -0.659994    0.023005
 C        -16.121574   -2.079628    0.101441
 C        -16.619838   -0.814000    0.180454
 C        -10.567470    0.725070    0.056844
 S        -12.239295    1.189234    0.134376
 S        -15.360414    0.374802    0.233870
 C        -12.329201   -5.141315    0.241474
 H        -11.379567   -5.231582    0.761332
 H        -13.122497   -5.657761    0.775345
 H        -12.233686   -5.573817   -0.759045
 S         -8.760980   -1.129872   -0.056485
 C         -9.356461    1.454386    0.013706
 C         -8.255648    0.574550   -0.045384
 C         -9.438480    2.918147    0.014283
 C         -6.894682    0.919042   -0.069093
 N         -8.330147    3.777076   -0.095616
 O        -10.564885    3.420768    0.087047
 C         -6.315875    2.205352   -0.009144
 S         -5.649749   -0.324151   -0.140501
 C         -6.947757    3.547647    0.045340
 C         -8.680881    5.211936   -0.190920
 C         -4.913956    2.165311   -0.010116
 C         -4.363891    0.885117   -0.082305
 O         -6.214368    4.524983    0.170134
 H         -7.917895    5.714471   -0.780515
 H         -9.657530    5.293865   -0.658394
 H         -8.716387    5.666567    0.803582
 H        -17.654696   -0.501085    0.213168
 C         -2.996030    0.538291   -0.111346
 C         -2.418875   -0.732314   -0.184839
 S         -1.712122    1.752915   -0.054749
 C         -1.029060   -0.739064   -0.195488
 C         -0.438681    0.526715   -0.130414
 C          0.930684    0.860544   -0.119324
 C          1.491956    2.138521   -0.049790
 S          2.206201   -0.358978   -0.198319
 C          2.891220    2.170668   -0.065125
 C          3.462889    0.877156   -0.135980
 C          3.531621    3.508730   -0.016815
 C          4.816012    0.525033   -0.125343
 N          4.915657    3.729328   -0.160908
 O          2.805326    4.491476    0.107769
 C          5.926588    1.399705   -0.060510
 S          5.312824   -1.185114   -0.156226
 C          6.017511    2.862980   -0.048484
 C          5.276619    5.161567   -0.256363
 C          7.129129    0.665695   -0.024861
 C          6.985051   -0.724001   -0.072919
 O          7.146804    3.357820    0.032681
 H          6.252415    5.236727   -0.726913
 H          4.515650    5.669850   -0.843567
 H          5.318823    5.615716    0.738099
 S          8.802205    1.123404    0.058300
 C          8.193164   -1.453249   -0.039604
 C          9.296204   -0.581782    0.029459
 C          8.108508   -2.921455   -0.059409
 C         10.660035   -0.938607    0.053099
 N          9.211190   -3.782456    0.039406
 O          6.980256   -3.416201   -0.139400
 C         11.230569   -2.219348   -0.017555
 S         11.909586    0.295491    0.141973
 C         10.598959   -3.554880   -0.093736
 C          8.851718   -5.216509    0.113301
 C         12.645540   -2.178930   -0.008406
 C         13.185367   -0.911508    0.079357
 O         11.327731   -4.534703   -0.232033
 H          9.631729   -5.737813    0.662074
 H          7.891754   -5.303207    0.614100
 H          8.774777   -5.646424   -0.889873
 C         14.572951   -0.543161    0.123674
 C         15.129573    0.713638    0.213698
 S         15.865667   -1.738129    0.067191
 C         16.547887    0.725935    0.237625
 C         17.098272   -0.518944    0.165906
 H         18.145445   -0.784288    0.165040
 H        -16.729164   -2.973022    0.056050
 H         -4.322098    3.070409    0.037140
 H          0.905747    3.046751    0.007587
 H         13.236271   -3.084308   -0.061138
 F         -3.142917   -1.856074   -0.240649
 F         -0.316471   -1.869395   -0.261979
 F         14.409653    1.843111    0.275346
 F         17.234941    1.869948    0.322970
