       160
S0: Total Energy = -6342.90253572
 C         14.412328   -0.042051   -0.264633
 C         13.826436   -1.285865   -0.195942
 C         12.398498   -1.198048   -0.136084
 C         11.974727    0.118948   -0.164198
 C         10.551073    0.252985   -0.109668
 C          8.650629   -1.127954    0.004314
 S         13.272574    1.277047   -0.264960
 H          8.255979   -2.136032    0.047169
 C          3.934349    0.286485    0.171418
 C          4.554112    1.542115    0.103073
 C          5.970396    1.448545    0.047395
 C          6.399887    0.132624    0.077935
 C          7.821894    0.001289    0.023758
 C          9.721735    1.381702   -0.089337
 S          5.121676   -1.032140    0.178093
 H         10.117692    2.389079   -0.130067
 C         10.958771   -3.058926   -1.450287
 C         11.496649   -4.358105   -1.532853
 C         11.450000   -5.103860   -2.713239
 C         10.853751   -4.570130   -3.857414
 C         10.314981   -3.283422   -3.806528
 C         10.374546   -2.544297   -2.622393
 H         11.954677   -4.800442   -0.651627
 H         11.874570   -6.104956   -2.736274
 H          9.849098   -2.851943   -4.689525
 H          9.956121   -1.539775   -2.623307
 C         10.935889   -3.027710    1.304301
 C         10.023611   -4.096269    1.404029
 C          9.809139   -4.775238    2.606124
 C         10.512626   -4.404443    3.753989
 C         11.427059   -3.351537    3.685129
 C         11.628417   -2.676689    2.478426
 H          9.480993   -4.418745    0.517947
 H          9.097837   -5.597077    2.644525
 H         11.984231   -3.055275    4.570969
 H         12.342382   -1.856573    2.449686
 C          7.430939    3.261429   -1.416945
 C          8.390266    4.284584   -1.553270
 C          8.603749    4.941906   -2.767182
 C          7.852038    4.595164   -3.891857
 C          6.891341    3.587748   -3.787241
 C          6.691400    2.933947   -2.568688
 H          8.972820    4.589923   -0.686591
 H          9.351886    5.728515   -2.832819
 H          6.296904    3.309825   -4.654572
 H          5.940074    2.149638   -2.513755
 C          7.421579    3.325908    1.342994
 C          7.027627    4.676354    1.393243
 C          7.092822    5.422462    2.573291
 C          7.563402    4.835875    3.748890
 C          7.958517    3.496477    3.730776
 C          7.881271    2.759568    2.547321
 H          6.669839    5.160808    0.488171
 H          6.780314    6.464203    2.570785
 H          8.324525    3.023569    4.639191
 H          8.184656    1.714564    2.571632
 H         15.470495    0.183135   -0.318162
 H         10.352681   -4.932806    4.690557
 H         10.809939   -5.149068   -4.776472
 H          7.621066    5.413804    4.667808
 H          8.011201    5.106781   -4.837775
 B         11.126724   -2.197969   -0.079886
 B          7.242367    2.454477   -0.019293
 N          9.970623   -0.990704   -0.062573
 N          8.401214    1.245427   -0.025516
 C          2.534449   -0.052159    0.223089
 C          1.965948   -1.307495    0.316307
 S          1.229989    1.134734    0.153886
 C          0.561606   -1.325959    0.329578
 C         -0.041417   -0.085974    0.247217
 C         14.601860   -2.576370   -0.185836
 H         14.322305   -3.205768   -1.038666
 H         15.680152   -2.396842   -0.231349
 H         14.388825   -3.153618    0.721753
 C          3.828567    2.863154    0.089714
 H          3.193024    2.975557   -0.797479
 H          3.189873    2.989598    0.972129
 H          4.548489    3.683868    0.085730
 F          2.669881   -2.448215    0.386532
 F         -0.110557   -2.484855    0.412401
 C         -1.450261    0.215434    0.218688
 C         -2.104517    1.454272    0.161900
 S         -2.601760   -1.134429    0.239950
 C         -3.518135    1.323017    0.124770
 C         -1.414518    2.794108    0.141601
 C         -3.912067   -0.004349    0.158277
 B         -4.817199    2.294764    0.075779
 H         -2.155831    3.595450    0.154763
 H         -0.763148    2.933541    1.012678
 H         -0.798712    2.927092   -0.756614
 C         -5.329686   -0.174153    0.119343
 C         -5.003674    3.156779    1.443052
 C         -5.042662    3.101422   -1.316404
 N         -5.943554    1.054677    0.078514
 C         -6.127250   -1.326164    0.104803
 C         -4.643858    4.516702    1.493543
 C         -5.435301    2.575051    2.650412
 C         -6.032149    4.097303   -1.438439
 C         -4.305311    2.800613   -2.476771
 C         -7.266925    1.154374    0.024984
 H         -5.702627   -2.322204    0.139879
 N         -7.450499   -1.226490    0.050606
 C         -4.714712    5.257102    2.676839
 H         -4.309043    5.013082    0.586147
 C         -5.518003    3.305982    3.837204
 H         -5.711906    1.522647    2.674390
 C         -6.276432    4.753623   -2.647067
 H         -6.614523    4.382101   -0.564681
 C         -4.535638    3.454205   -3.690083
 H         -3.531423    2.037824   -2.432957
 H         -7.691659    2.150337   -0.010583
 C         -8.064933    0.002077    0.007443
 B         -8.575496   -2.466834    0.046560
 C         -5.156845    4.654921    3.855596
 H         -4.429067    6.306526    2.674441
 H         -5.861847    2.821063    4.747944
 C         -5.525950    4.433940   -3.780557
 H         -7.047577    5.518534   -2.701650
 H         -3.941851    3.197595   -4.564403
 C         -9.481944   -0.169047   -0.044502
 C         -9.874006   -1.496562   -0.017125
 C         -8.361689   -3.270004    1.442813
 C         -8.375249   -3.332189   -1.316899
 H         -5.218938    5.228286    4.777079
 H         -5.708980    4.945130   -4.722379
 S        -10.795041    0.957418   -0.147342
 C        -11.287859   -1.630239   -0.077807
 C         -7.369608   -4.261653    1.577635
 C         -9.113053   -2.970030    2.594374
 C         -8.728904   -4.693696   -1.366563
 C         -7.936939   -2.751831   -2.522539
 C        -11.941659   -0.394721   -0.150044
 C        -11.975467   -2.971592   -0.065725
 C         -7.135901   -4.914634    2.790139
 H         -6.776592   -4.545911    0.710856
 C         -8.893438   -3.620456    3.811399
 H         -9.889527   -2.210560    2.540421
 C         -8.645440   -5.437015   -2.547206
 H         -9.069092   -5.188938   -0.460571
 C         -7.841723   -3.485552   -3.706662
 H         -7.665183   -1.698164   -2.547299
 C        -13.354952   -0.098144   -0.223728
 H        -12.647089   -3.082670    0.794423
 H        -12.570832   -3.135650   -0.972177
 H        -11.233638   -3.770727   -0.011542
 C         -7.900167   -4.595902    3.914677
 H         -6.362285   -5.676276    2.854715
 H         -9.497890   -3.364637    4.678615
 C         -8.196639   -4.836165   -3.724132
 H         -8.926508   -6.487687   -2.544136
 H         -7.493070   -3.001517   -4.616053
 C        -13.960223    1.138950   -0.293090
 S        -14.624263   -1.327994   -0.239477
 H         -7.725371   -5.104504    4.859466
 H         -8.124684   -5.411795   -4.643495
 C        -15.376390    1.110545   -0.356037
 F        -13.291207    2.304211   -0.302325
 C        -15.892248   -0.148730   -0.336294
 F        -16.091701    2.240279   -0.426897
 H        -16.929609   -0.447573   -0.372934
       160
T1: Total Energy = -6342.86018155
 C         14.387791   -0.034134    0.020534
 C         13.802499   -1.280881    0.033061
 C         12.374252   -1.196950    0.026850
 C         11.948080    0.121711    0.007265
 C         10.526392    0.253326   -0.002594
 C          8.626572   -1.133794   -0.004151
 S         13.246938    1.283895   -0.004371
 H          8.230045   -2.142270    0.000231
 C          3.905897    0.269235    0.000919
 C          4.538043    1.537123   -0.017761
 C          5.944028    1.444202   -0.018906
 C          6.376455    0.120073   -0.000385
 C          7.795761   -0.005632    0.002678
 C          9.695612    1.380960    0.003639
 S          5.102375   -1.051704    0.020299
 H         10.093759    2.388346    0.001947
 C         11.006669   -3.030640   -1.395899
 C         11.535074   -4.333467   -1.480098
 C         11.548496   -5.049491   -2.679745
 C         11.025374   -4.480499   -3.842441
 C         10.497919   -3.189043   -3.790247
 C         10.496578   -2.480300   -2.586363
 H         11.937607   -4.802435   -0.585692
 H         11.963366   -6.054606   -2.703702
 H         10.088877   -2.730384   -4.687587
 H         10.090016   -1.470895   -2.585481
 C         10.853401   -3.063340    1.355153
 C          9.934521   -4.130418    1.390276
 C          9.667462   -4.837542    2.565313
 C         10.323283   -4.497917    3.750458
 C         11.242814   -3.447247    3.745969
 C         11.496522   -2.743764    2.565755
 H          9.429186   -4.429764    0.474477
 H          8.952906   -5.657368    2.553557
 H         11.763197   -3.174983    4.661375
 H         12.213194   -1.925784    2.587588
 C          7.459568    3.295527   -1.375839
 C          8.415465    4.328631   -1.443907
 C          8.676610    5.017981   -2.630420
 C          7.978018    4.694566   -3.795561
 C          7.022094    3.677905   -3.758878
 C          6.774293    2.992072   -2.567038
 H          8.956796    4.615894   -0.544977
 H          9.420301    5.811374   -2.643239
 H          6.468734    3.417832   -4.658303
 H          6.027519    2.201372   -2.565600
 C          7.334584    3.289949    1.381689
 C          6.921265    4.633829    1.450873
 C          6.930642    5.349687    2.651115
 C          7.362640    4.738394    3.829041
 C          7.776583    3.405185    3.792225
 C          7.755481    2.698501    2.588063
 H          6.593286    5.137710    0.545080
 H          6.605099    6.387335    2.662929
 H          8.113928    2.913592    4.701790
 H          8.073579    1.657690    2.597233
 H         15.446857    0.193293    0.022466
 H         10.122701   -5.048582    4.666105
 H         11.028918   -5.035948   -4.776895
 H          7.376664    5.292879    4.763937
 H          8.174349    5.231224   -4.720348
 B         11.104770   -2.201285    0.000792
 B          7.218978    2.452074   -0.008330
 N          9.946213   -0.996990   -0.009244
 N          8.373922    1.245402    0.005699
 C          2.524023   -0.056680    0.006236
 C          1.943564   -1.330497    0.024526
 S          1.218972    1.140392   -0.008921
 C          0.558431   -1.350894    0.025903
 C         -0.060249   -0.089829    0.008715
 C         14.580365   -2.569802    0.050607
 H         14.340938   -3.180980   -0.827290
 H         15.659063   -2.387422    0.057675
 H         14.328051   -3.166661    0.935087
 C          3.811173    2.855579   -0.033114
 H          3.171596    2.962679   -0.917748
 H          3.176795    2.983777    0.852431
 H          4.530353    3.676529   -0.043325
 F          2.657846   -2.463575    0.039494
 F         -0.122266   -2.503433    0.042241
 C         -1.439581    0.195528    0.006336
 C         -2.116222    1.454216   -0.011412
 S         -2.607484   -1.162087    0.026924
 C         -3.506327    1.328985   -0.009048
 C         -1.417099    2.786904   -0.029520
 C         -3.912902   -0.022057    0.009853
 B         -4.814064    2.306172    0.007052
 H         -2.153830    3.591784   -0.039771
 H         -0.784205    2.927990    0.855138
 H         -0.781156    2.904578   -0.915427
 C         -5.312739   -0.181468    0.012849
 C         -4.924271    3.144104    1.401230
 C         -5.052939    3.170105   -1.351618
 N         -5.920421    1.087262    0.016020
 C         -6.107255   -1.329490    0.004184
 C         -4.516741    4.489403    1.482120
 C         -5.343650    2.543976    2.604156
 C         -6.025811    4.187838   -1.412794
 C         -4.357601    2.896480   -2.544155
 C         -7.251334    1.165205    0.005891
 H         -5.668240   -2.321116    0.008275
 N         -7.431460   -1.249880   -0.006369
 C         -4.528006    5.197056    2.687268
 H         -4.193201    5.002100    0.579299
 C         -5.366292    3.241181    3.814059
 H         -5.661407    1.503094    2.602590
 C         -6.294040    4.888433   -2.591317
 H         -6.577589    4.451952   -0.512901
 C         -4.610401    3.593878   -3.728434
 H         -3.598265    2.117302   -2.550101
 H         -7.690987    2.156046    0.002294
 C         -8.041800    0.018521   -0.003394
 B         -8.541382   -2.472088    0.001385
 C         -4.956617    4.575493    3.861325
 H         -4.207363    6.236351    2.706581
 H         -5.702570    2.741939    4.720100
 C         -5.583888    4.594128   -3.757263
 H         -7.052747    5.667838   -2.597596
 H         -4.048094    3.355244   -4.628539
 C         -9.446782   -0.155965   -0.002492
 C         -9.844355   -1.495573    0.015200
 C         -8.297054   -3.332596    1.361363
 C         -8.423135   -3.310031   -1.392481
 H         -4.972326    5.123097    4.800432
 H         -5.785320    5.139484   -4.676013
 S        -10.764115    0.972777   -0.021718
 C        -11.251172   -1.625283    0.014589
 C         -7.320340   -4.346405    1.425919
 C         -8.994138   -3.058044    2.552784
 C         -8.814895   -4.660002   -1.471557
 C         -8.013826   -2.705791   -2.596862
 C        -11.914092   -0.384090   -0.003158
 C        -11.941898   -2.964400    0.030760
 C         -7.049721   -5.042424    2.606718
 H         -6.767620   -4.611739    0.526883
 C         -8.738861   -3.750882    3.739170
 H         -9.756425   -2.281898    2.555469
 C         -8.796576   -5.368696   -2.676136
 H         -9.132713   -5.175114   -0.568177
 C         -7.984275   -3.403806   -3.806034
 H         -7.711342   -1.660312   -2.597408
 C        -13.321828   -0.090899   -0.008379
 H        -12.580148   -3.087393    0.914333
 H        -12.572050   -3.110962   -0.854996
 H        -11.200404   -3.765190    0.043155
 C         -7.761366   -4.747186    3.771486
 H         -6.288247   -5.819157    2.615593
 H         -9.302689   -3.511913    4.638216
 C         -8.377028   -4.743354   -3.851337
 H         -9.105390   -6.411604   -2.693986
 H         -7.656657   -2.900949   -4.713275
 C        -13.932698    1.150405   -0.023135
 S        -14.592882   -1.322482    0.002286
 H         -7.558337   -5.289081    4.691950
 H         -8.356211   -5.291575   -4.790001
 C        -15.347812    1.120595   -0.025476
 F        -13.265505    2.315043   -0.034496
 C        -15.861849   -0.141160   -0.012606
 F        -16.067966    2.248630   -0.039080
 H        -16.900255   -0.438875   -0.011507
       160
S1: Total Energy = -6342.84318473
 C         14.388730   -0.011724    0.030005
 C         13.808808   -1.262283    0.048761
 C         12.382011   -1.183928    0.039801
 C         11.950443    0.135738    0.011741
 C         10.531311    0.260010   -0.000257
 C          8.634886   -1.131319    0.004502
 S         13.245458    1.302812   -0.004295
 H          8.240440   -2.140594    0.014138
 C          3.915149    0.259121   -0.002139
 C          4.542705    1.530944   -0.026474
 C          5.947728    1.442105   -0.025908
 C          6.382763    0.117742    0.000072
 C          7.803545   -0.005434    0.004990
 C          9.696322    1.387720   -0.000291
 S          5.114946   -1.058001    0.025376
 H         10.092608    2.395881   -0.007130
 C         11.025876   -3.026102   -1.378327
 C         11.558960   -4.327342   -1.455907
 C         11.577879   -5.047346   -2.653083
 C         11.056361   -4.483893   -3.819172
 C         10.524921   -3.193830   -3.773260
 C         10.517905   -2.480858   -2.571940
 H         11.960331   -4.791870   -0.558732
 H         11.995848   -6.051212   -2.672395
 H         10.117235   -2.739643   -4.673432
 H         10.108420   -1.472620   -2.575699
 C         10.864891   -3.049734    1.373201
 C          9.950535   -4.120604    1.408758
 C          9.682557   -4.824270    2.585657
 C         10.332574   -4.476938    3.771742
 C         11.247307   -3.422088    3.766632
 C         11.502108   -2.721960    2.584718
 H          9.450182   -4.426021    0.492264
 H          8.972045   -5.647548    2.574530
 H         11.763207   -3.144061    4.682782
 H         12.215064   -1.900714    2.606267
 C          7.459539    3.292705   -1.387196
 C          8.410187    4.330614   -1.455497
 C          8.671883    5.016412   -2.643902
 C          7.979397    4.684323   -3.810228
 C          7.029055    3.662464   -3.773248
 C          6.780614    2.980055   -2.579667
 H          8.946369    4.624668   -0.555735
 H          9.411007    5.813964   -2.657197
 H          6.480593    3.395771   -4.673652
 H          6.038329    2.185081   -2.578524
 C          7.328864    3.294338    1.370974
 C          6.911796    4.637255    1.435835
 C          6.915344    5.355073    2.634883
 C          7.344829    4.746780    3.815279
 C          7.762249    3.414576    3.782519
 C          7.746954    2.705648    2.579632
 H          6.585652    5.138706    0.528097
 H          6.587206    6.391854    2.643833
 H          8.097617    2.925571    4.694133
 H          8.067609    1.665625    2.591963
 H         15.447180    0.218948    0.032596
 H         10.131331   -5.025037    4.688726
 H         11.064357   -5.042553   -4.751626
 H          7.354193    5.302929    4.749176
 H          8.176081    5.218401   -4.736362
 B         11.116411   -2.192125    0.016359
 B          7.219132    2.454314   -0.017649
 N          9.955239   -0.992025   -0.000977
 N          8.376848    1.248506    0.001934
 C          2.535180   -0.070897    0.002409
 C          1.959939   -1.345695    0.024678
 S          1.226672    1.120473   -0.018605
 C          0.571946   -1.369006    0.024600
 C         -0.042408   -0.110719    0.002568
 C         14.592860   -2.547098    0.074991
 H         14.357202   -3.164130   -0.799728
 H         15.670509   -2.359371    0.082387
 H         14.341873   -3.139563    0.962680
 C          3.811030    2.845573   -0.049256
 H          3.171802    2.944705   -0.935052
 H          3.175620    2.974920    0.835395
 H          4.526773    3.669256   -0.063157
 F          2.676045   -2.474831    0.044749
 F         -0.105756   -2.521988    0.044300
 C         -1.430479    0.180692   -0.002805
 C         -2.095823    1.430221   -0.018345
 S         -2.598339   -1.170485    0.010074
 C         -3.501145    1.302949   -0.022269
 C         -1.403658    2.765802   -0.029243
 C         -3.894769   -0.031598   -0.009975
 B         -4.810575    2.276651   -0.001063
 H         -2.143787    3.567489   -0.027636
 H         -0.764926    2.902827    0.852185
 H         -0.773858    2.894415   -0.918542
 C         -5.324778   -0.206105   -0.007739
 C         -4.915458    3.116615    1.394318
 C         -5.051538    3.147662   -1.357345
 N         -5.905501    1.059059    0.006389
 C         -6.103364   -1.341920   -0.022625
 C         -4.506257    4.461370    1.477011
 C         -5.331661    2.515193    2.597792
 C         -6.018064    4.171636   -1.413506
 C         -4.364600    2.871119   -2.554299
 C         -7.249136    1.147977    0.006613
 H         -5.671836   -2.335267   -0.028543
 N         -7.453862   -1.256103   -0.026797
 C         -4.511385    5.166755    2.683693
 H         -4.185910    4.975794    0.573881
 C         -5.348748    3.209905    3.809233
 H         -5.651839    1.475106    2.594084
 C         -6.287458    4.875604   -2.589908
 H         -6.565135    4.437044   -0.511152
 C         -4.618151    3.571529   -3.736571
 H         -3.612224    2.085163   -2.565604
 H         -7.680650    2.141279    0.014662
 C         -8.038578    0.006530   -0.007271
 B         -8.556103   -2.460805   -0.020114
 C         -4.936528    4.543497    3.858123
 H         -4.188979    6.205592    2.703968
 H         -5.683347    2.709516    4.715350
 C         -5.584857    4.578649   -3.759650
 H         -7.042053    5.659105   -2.591728
 H         -4.062125    3.329804   -4.639868
 C         -9.456890   -0.153703    0.002577
 C         -9.860332   -1.484383    0.011935
 C         -8.310984   -3.342981    1.330418
 C         -8.459092   -3.298385   -1.419769
 H         -4.948237    5.089245    4.798447
 H         -5.787312    5.126330   -4.676854
 S        -10.763861    0.985202    0.003063
 C        -11.273439   -1.604104    0.021360
 C         -7.343394   -4.366305    1.376851
 C         -8.996568   -3.076287    2.530358
 C         -8.881168   -4.638741   -1.505857
 C         -8.034939   -2.698428   -2.621035
 C        -11.924526   -0.360691    0.019199
 C        -11.972620   -2.939043    0.032388
 C         -7.071174   -5.079243    2.547341
 H         -6.799210   -4.625294    0.470726
 C         -8.739640   -3.785440    3.706756
 H         -9.751352   -2.293009    2.547192
 C         -8.879564   -5.341974   -2.713854
 H         -9.209602   -5.151267   -0.604601
 C         -8.021839   -3.391002   -3.833816
 H         -7.706861   -1.660851   -2.614297
 C        -13.331916   -0.055126    0.027501
 H        -12.608300   -3.064179    0.917716
 H        -12.607777   -3.077223   -0.851382
 H        -11.235910   -3.744369    0.036795
 C         -7.771647   -4.791570    3.720708
 H         -6.316703   -5.863022    2.541534
 H         -9.295249   -3.551932    4.612487
 C         -8.446054   -4.720711   -3.886278
 H         -9.212523   -6.377477   -2.736786
 H         -7.681958   -2.891498   -4.738572
 C        -13.934633    1.189196    0.031939
 S        -14.611261   -1.278175    0.031774
 H         -7.567521   -5.346451    4.633273
 H         -8.438319   -5.264547   -4.827809
 C        -15.350346    1.168568    0.038963
 F        -13.260529    2.350839    0.030002
 C        -15.873829   -0.089134    0.039980
 F        -16.062794    2.302269    0.044234
 H        -16.914109   -0.380045    0.044710
