       172
S0: Total Energy = -6971.10603285
 C          7.819750   -4.982164   -1.324174
 C          9.206879   -4.986571   -1.579053
 C          9.831625   -3.781286   -1.271693
 C          8.937369   -2.834042   -0.775617
 C          9.622033   -1.600935   -0.467192
 C         10.994844   -1.801995   -0.789084
 C         11.914604   -0.783252   -0.598393
 S          7.312233   -3.401255   -0.678372
 C         11.241458   -3.216018   -1.332427
 H          9.701630   -5.866936   -1.976497
 H         12.966076   -0.916917   -0.837975
 C         13.249791    3.813576    0.784504
 C         11.863136    3.818763    1.037830
 C         11.237239    2.614526    0.725604
 C         12.130835    1.668396    0.227940
 C         11.445664    0.435768   -0.082705
 C         10.072750    0.636834    0.239295
 C          9.153016   -0.381635    0.048292
 S         13.756573    2.235153    0.133378
 C          9.826885    2.050357    0.784374
 H         11.368887    4.697932    1.438487
 H          8.101614   -0.248105    0.288331
 C          7.041770   -6.138028   -1.583951
 C          5.703307   -6.452355   -1.449863
 C          4.647292   -5.545027   -0.951019
 O          4.772595   -4.383681   -0.574032
 C          3.377001   -6.305969   -0.988942
 C          2.122162   -5.869843   -0.610398
 C          1.029715   -6.755814   -0.716256
 C          1.279047   -8.059719   -1.199991
 C          2.549946   -8.493035   -1.572706
 C          3.627567   -7.604194   -1.471937
 C          5.071187   -7.735053   -1.775973
 C          5.666360   -8.884427   -2.276331
 C          4.945537  -10.083763   -2.561114
 N          4.406426  -11.086477   -2.810863
 C          7.057339   -9.016893   -2.569220
 N          8.183473   -9.177997   -2.824824
 H          2.002269   -4.863878   -0.222169
 H          0.451679   -8.755363   -1.304669
 H          2.667823   -9.504332   -1.936887
 H          7.673293   -6.929181   -1.972637
 C         14.030112    4.967409    1.053236
 C         15.368632    5.279034    0.925251
 C         16.424033    4.374092    0.418334
 O         16.294338    3.217788    0.027470
 C         17.695788    5.130736    0.467476
 C         18.953056    4.689722    0.102580
 C         20.050745    5.566586    0.228786
 C         19.804277    6.862040    0.736882
 C         18.534153    7.295929    1.111158
 C         17.449043    6.420817    0.974678
 C         16.005040    6.556577    1.267548
 C         15.409360    7.704563    1.770832
 C         16.132232    8.899249    2.069595
 N         16.672648    9.898491    2.330322
 C         14.016004    7.841624    2.049635
 N         12.887906    8.006772    2.293991
 H         19.077674    3.674143   -0.258030
 H         20.630225    7.560916    0.830537
 H         18.419970    8.301710    1.491655
 H         13.399136    5.756698    1.446589
 C         12.211520   -4.008719   -0.427068
 H         12.319217   -5.036049   -0.792005
 H         13.203624   -3.544418   -0.428136
 H         11.849736   -4.045804    0.605210
 C         11.776044   -3.178854   -2.782395
 H         11.104523   -2.616047   -3.438343
 H         12.764692   -2.708155   -2.815212
 H         11.872463   -4.195713   -3.178497
 C          8.858218    2.845040   -0.120770
 H          7.865665    2.381639   -0.121126
 H          8.751136    3.872006    0.245376
 H          9.220938    2.883178   -1.152689
 C          9.290974    2.011765    2.233787
 H          9.195478    3.028212    2.631183
 H          8.301712    1.542228    2.265269
 H          9.961334    1.447344    2.889525
 C         21.392445    5.134377   -0.159193
 C         21.747500    4.063419   -0.954214
 S         22.833645    5.983506    0.379113
 C         23.151067    3.925000   -1.134452
 H         21.022018    3.403906   -1.417065
 C         23.867118    4.888539   -0.475282
 H         23.608141    3.144780   -1.732791
 H         24.940157    5.020460   -0.436136
 C         -0.312214   -6.320722   -0.335156
 S         -1.594571   -7.466450    0.000978
 C         -0.779483   -5.028837   -0.184244
 C         -2.745150   -6.188656    0.339027
 C         -2.140189   -4.954953    0.189726
 H         -0.164889   -4.152456   -0.354766
 C         -4.126065   -6.476323    0.720495
 H         -2.655816   -4.016910    0.360287
 C         -5.113087   -5.472473    0.632956
 C         -4.518359   -7.751392    1.186068
 C         -6.407859   -5.771753    1.009821
 H         -4.882751   -4.480023    0.260207
 C         -5.828468   -8.045737    1.558422
 H         -3.773938   -8.537016    1.275442
 C         -7.585889   -4.874202    0.985279
 C         -6.800526   -7.040900    1.475206
 H         -6.057537   -9.043242    1.907447
 C         -8.737573   -5.668387    1.465443
 O         -7.580986   -3.699846    0.628409
 C         -8.248784   -7.014320    1.783731
 C        -10.038664   -5.218524    1.578452
 C         -8.963301   -8.091581    2.288264
 C        -10.686801   -3.984166    1.322567
 H        -10.757600   -5.946184    1.938314
 C         -8.377167   -9.363850    2.565668
 C        -10.356669   -8.068086    2.598440
 C        -12.073888   -3.850706    1.539746
 S        -10.000426   -2.450768    0.730337
 N         -7.950099  -10.420582    2.809328
 N        -11.490421   -8.102172    2.868426
 C        -12.562366   -2.580711    1.245169
 H        -12.667173   -4.683794    1.902727
 C        -11.560273   -1.720263    0.799690
 C        -13.908060   -1.873626    1.278127
 C        -12.103615   -0.415797    0.504468
 C        -13.499532   -0.480658    0.779656
 C        -14.484947   -1.814165    2.711071
 C        -14.924445   -2.539957    0.322986
 C        -11.494014    0.759645    0.036654
 C        -14.302225    0.632295    0.587602
 H        -15.418404   -1.240973    2.725703
 H        -14.703370   -2.823946    3.075495
 H        -13.780293   -1.342768    3.403273
 H        -15.149699   -3.558676    0.657106
 H        -15.862799   -1.975016    0.306908
 H        -14.535046   -2.590332   -0.698640
 C        -12.296618    1.872666   -0.154985
 H        -10.426810    0.787922   -0.166103
 C        -13.692720    1.807517    0.119335
 H        -15.369474    0.603938    0.790058
 C        -11.888177    3.265889   -0.652915
 C        -14.236587    3.111489   -0.177806
 C        -13.234416    3.972058   -0.622287
 C        -11.308840    3.206834   -2.084856
 C        -10.873816    3.932824    0.303965
 S        -15.797651    3.840097   -0.114184
 C        -13.723663    5.241381   -0.919409
 H        -11.090731    4.216781   -2.449021
 H        -10.374812    2.634490   -2.097969
 H        -12.011940    2.734781   -2.778186
 H        -11.264939    3.982771    1.324954
 H         -9.935019    3.368626    0.321507
 H        -10.648854    4.951792   -0.029607
 C        -15.111428    5.373096   -0.706655
 H        -13.130384    6.074794   -1.281677
 C        -15.760362    6.606511   -0.967585
 C        -17.063410    7.052626   -0.867375
 H        -15.039862    7.334793   -1.322921
 C        -18.219548    6.252669   -0.403264
 C        -17.554289    8.394504   -1.193376
 O        -18.218015    5.079885   -0.040504
 C        -19.402731    7.138305   -0.454504
 C        -19.016011    8.408672   -0.920765
 C        -16.835690    9.479380   -1.670991
 C        -20.713078    6.833444   -0.112760
 C        -19.986869    9.408902   -1.046802
 C        -17.419058   10.751842   -1.956049
 C        -15.432850    9.468994   -1.939656
 C        -21.676144    7.836956   -0.241226
 H        -20.966050    5.839260    0.242639
 C        -21.308981    9.106726   -0.703312
 H        -19.748435   10.402946   -1.399137
 N        -17.837751   11.810379   -2.205684
 N        -14.292073    9.514897   -2.175414
 H        -22.711578    7.635550    0.016655
 H        -22.065378    9.880007   -0.799308
       172
T1: Total Energy = -6971.05896576
 C          7.819775   -4.988437   -1.300475
 C          9.208221   -4.997489   -1.547054
 C          9.833428   -3.790667   -1.246211
 C          8.938070   -2.837593   -0.763753
 C          9.623313   -1.603126   -0.461733
 C         10.997679   -1.809639   -0.773411
 C         11.918404   -0.791254   -0.585655
 S          7.311283   -3.401242   -0.671253
 C         11.244744   -3.228725   -1.303145
 H          9.703677   -5.882049   -1.934119
 H         12.971033   -0.929297   -0.817540
 C         13.254800    3.814324    0.767211
 C         11.866618    3.824340    1.011986
 C         11.240092    2.618958    0.705655
 C         12.134762    1.666891    0.221322
 C         11.448944    0.433100   -0.083208
 C         10.074517    0.639640    0.228573
 C          9.153786   -0.378503    0.040451
 S         13.762210    2.229638    0.131880
 C          9.828201    2.058178    0.760269
 H         11.371842    4.707663    1.402689
 H          8.101233   -0.240606    0.272827
 C          7.041166   -6.145245   -1.555313
 C          5.701746   -6.456472   -1.425751
 C          4.644742   -5.544438   -0.937354
 O          4.769886   -4.380050   -0.569735
 C          3.374337   -6.305220   -0.971940
 C          2.119004   -5.865751   -0.599420
 C          1.026125   -6.752263   -0.699573
 C          1.276681   -8.060407   -1.171968
 C          2.547925   -8.496874   -1.539123
 C          3.625770   -7.607467   -1.444053
 C          5.069287   -7.741022   -1.744852
 C          5.664823   -8.893366   -2.238315
 C          4.944010  -10.094174   -2.516684
 N          4.404908  -11.098250   -2.761006
 C          7.055720   -9.027414   -2.530602
 N          8.181812   -9.189935   -2.785616
 H          1.998954   -4.856401   -0.220164
 H          0.449706   -8.757267   -1.271578
 H          2.666246   -9.511273   -1.894466
 H          7.673601   -6.940500   -1.934026
 C         14.035941    4.968407    1.032161
 C         15.375862    5.276402    0.909695
 C         16.431874    4.366484    0.413144
 O         16.302002    3.207746    0.029602
 C         17.704512    5.121708    0.461777
 C         18.962427    4.676670    0.104052
 C         20.060808    5.552971    0.228076
 C         19.814349    6.852086    0.726720
 C         18.543553    7.290028    1.093959
 C         17.457778    6.415400    0.959676
 C         16.013000    6.554848    1.247050
 C         15.417543    7.706187    1.742937
 C         16.141209    8.901442    2.037456
 N         16.682211    9.901342    2.294436
 C         14.023768    7.846335    2.018062
 N         12.895368    8.014057    2.259268
 H         19.086986    3.658540   -0.249325
 H         20.640873    7.550552    0.818348
 H         18.429383    8.298480    1.467318
 H         13.404343    5.761868    1.416030
 C         12.207713   -4.015516   -0.385145
 H         12.315748   -5.046084   -0.740752
 H         13.200673   -3.553024   -0.384013
 H         11.839506   -4.043241    0.645160
 C         11.788395   -3.204991   -2.750020
 H         11.121899   -2.646830   -3.414996
 H         12.777995   -2.736153   -2.780749
 H         11.885671   -4.225395   -3.136686
 C          8.866841    2.847162   -0.157566
 H          7.873456    2.385533   -0.160434
 H          8.759324    3.877303    0.199442
 H          9.236190    2.876136   -1.187436
 C          9.282994    2.032826    2.206497
 H          9.186548    3.052783    2.594576
 H          8.292795    1.565119    2.235638
 H          9.948210    1.472960    2.871308
 C         21.403199    5.116467   -0.152664
 C         21.759305    4.040390   -0.940254
 S         22.843845    5.966408    0.385795
 C         23.163276    3.898723   -1.114783
 H         21.034350    3.379436   -1.401871
 C         23.878559    4.864914   -0.458674
 H         23.621189    3.114355   -1.707027
 H         24.951664    4.995362   -0.416525
 C         -0.316009   -6.314474   -0.324513
 S         -1.604119   -7.457591    0.001659
 C         -0.781185   -5.021816   -0.172527
 C         -2.752852   -6.177562    0.338484
 C         -2.143378   -4.945101    0.195002
 H         -0.163530   -4.146390   -0.336944
 C         -4.135968   -6.462781    0.712377
 H         -2.657154   -4.006086    0.365867
 C         -5.121795   -5.456072    0.621344
 C         -4.534345   -7.735988    1.174302
 C         -6.417892   -5.754103    0.990878
 H         -4.887301   -4.463593    0.251153
 C         -5.848473   -8.028743    1.539839
 H         -3.792461   -8.523746    1.267268
 C         -7.595953   -4.858325    0.963001
 C         -6.817350   -7.022878    1.452589
 H         -6.081001   -9.026155    1.886791
 C         -8.752895   -5.654463    1.438891
 O         -7.592335   -3.683393    0.608795
 C         -8.268887   -6.990991    1.751725
 C        -10.066518   -5.199579    1.554880
 C         -8.994072   -8.075217    2.248423
 C        -10.702860   -3.970399    1.302745
 H        -10.782923   -5.929231    1.913029
 C         -8.410840   -9.347229    2.522385
 C        -10.387536   -8.056120    2.549012
 C        -12.108963   -3.829651    1.524167
 S        -10.004348   -2.438488    0.710129
 N         -7.984761  -10.405946    2.763150
 N        -11.523295   -8.099329    2.812881
 C        -12.588042   -2.573602    1.235521
 H        -12.699003   -4.664689    1.886341
 C        -11.576590   -1.692469    0.781433
 C        -13.932729   -1.866248    1.272309
 C        -12.105549   -0.420206    0.496699
 C        -13.524402   -0.472222    0.775102
 C        -14.504824   -1.810525    2.707104
 C        -14.949481   -2.532376    0.317740
 C        -11.487973    0.771114    0.023057
 C        -14.314562    0.630857    0.586856
 H        -15.439422   -1.239552    2.724240
 H        -14.718953   -2.821799    3.069370
 H        -13.799634   -1.338681    3.398300
 H        -15.170338   -3.552318    0.650412
 H        -15.888580   -1.968864    0.306580
 H        -14.563132   -2.579246   -0.705102
 C        -12.278220    1.874306   -0.164799
 H        -10.420804    0.790884   -0.179103
 C        -13.697000    1.821926    0.112758
 H        -15.381790    0.611065    0.788735
 C        -11.869845    3.268462   -0.661730
 C        -14.226577    3.093840   -0.173919
 C        -13.215064    3.974972   -0.627407
 C        -11.295197    3.212711   -2.095474
 C        -10.855079    3.935222    0.294530
 S        -15.799688    3.837389   -0.107493
 C        -13.695385    5.230127   -0.918740
 H        -11.081085    4.224017   -2.457676
 H        -10.360178    2.642348   -2.110871
 H        -11.998877    2.740223   -2.787763
 H        -11.243256    3.982072    1.316680
 H         -9.915722    3.372156    0.307449
 H        -10.634134    4.955231   -0.037897
 C        -15.101966    5.368954   -0.701288
 H        -13.105618    6.065363   -1.280992
 C        -15.739477    6.596840   -0.958845
 C        -17.054643    7.048007   -0.853994
 H        -15.022028    7.326657   -1.314598
 C        -18.214329    6.247550   -0.387144
 C        -17.542049    8.380302   -1.175081
 O        -18.210388    5.074599   -0.025783
 C        -19.396528    7.132938   -0.435312
 C        -19.005107    8.402023   -0.901750
 C        -16.815886    9.469018   -1.654894
 C        -20.706348    6.830853   -0.092195
 C        -19.972497    9.403877   -1.026175
 C        -17.397303   10.740854   -1.936855
 C        -15.415499    9.459738   -1.926189
 C        -21.668155    7.837376   -0.219041
 H        -20.961508    5.837132    0.263120
 C        -21.296666    9.104777   -0.680893
 H        -19.732127   10.397494   -1.378443
 N        -17.815792   11.800818   -2.184372
 N        -14.275001    9.511680   -2.165927
 H        -22.703768    7.638671    0.039956
 H        -22.050267    9.881007   -0.776213
       172
S1: Total Energy = -6971.04233781
 C          7.842008   -5.201781   -0.763874
 C          9.249564   -5.199816   -0.928233
 C          9.823160   -3.950439   -0.753185
 C          8.874460   -2.960876   -0.448487
 C          9.503328   -1.696671   -0.267249
 C         10.912910   -1.894839   -0.468505
 C         11.790604   -0.840557   -0.352623
 S          7.250918   -3.564474   -0.381802
 C         11.221969   -3.359979   -0.802850
 H          9.785886   -6.112598   -1.164705
 H         12.859133   -0.970165   -0.499590
 C         12.925167    3.928190    0.484831
 C         11.517468    3.928296    0.648286
 C         10.940746    2.682430    0.463761
 C         11.889001    1.693429    0.153385
 C         11.259320    0.429707   -0.031924
 C          9.850999    0.628092    0.170065
 C          8.972411   -0.426194    0.052974
 S         13.512107    2.293500    0.087801
 C          9.541687    2.092192    0.509382
 H         10.983040    4.840174    0.893037
 H          7.904032   -0.296586    0.200705
 C          7.111492   -6.410130   -0.896967
 C          5.770690   -6.742569   -0.801367
 C          4.661021   -5.794407   -0.532677
 O          4.742818   -4.584598   -0.341585
 C          3.413800   -6.586776   -0.539136
 C          2.128769   -6.135960   -0.337193
 C          1.059724   -7.064498   -0.371742
 C          1.382227   -8.425789   -0.609816
 C          2.682282   -8.871242   -0.813030
 C          3.736872   -7.941970   -0.782968
 C          5.188507   -8.076673   -0.955538
 C          5.855992   -9.280752   -1.215778
 C          5.185840  -10.529856   -1.351087
 N          4.680605  -11.575386   -1.470500
 C          7.264136   -9.410447   -1.376112
 N          8.412687   -9.570519   -1.515575
 H          1.962269   -5.081762   -0.143491
 H          0.583337   -9.160723   -0.648544
 H          2.850728   -9.924039   -0.993352
 H          7.783827   -7.230660   -1.119181
 C         13.658521    5.130636    0.638649
 C         14.999959    5.460477    0.550549
 C         16.106558    4.521342    0.245302
 O         16.021039    3.318427    0.017539
 C         17.355929    5.312041    0.265408
 C         18.642452    4.861307    0.048163
 C         19.712275    5.780159    0.117051
 C         19.403885    7.126641    0.417863
 C         18.102854    7.571722    0.644010
 C         17.046818    6.654352    0.565666
 C         15.586156    6.787887    0.743118
 C         14.929458    7.981108    1.035307
 C         15.604886    9.226715    1.199029
 N         16.107939   10.269071    1.342314
 C         13.519607    8.113916    1.202295
 N         12.373628    8.277490    1.348337
 H         18.811503    3.808988   -0.154257
 H         20.206763    7.856616    0.463383
 H         17.942496    8.617400    0.868173
 H         12.988131    5.948052    0.877674
 C         12.149665   -3.999391    0.254998
 H         12.298300   -5.062239    0.036189
 H         13.130637   -3.512252    0.247527
 H         11.727473   -3.910028    1.260710
 C         11.843727   -3.497993   -2.211725
 H         11.200952   -3.049478   -2.975536
 H         12.820708   -3.004332   -2.249020
 H         11.988423   -4.554929   -2.459761
 C          8.615671    2.735670   -0.547540
 H          7.635244    2.247489   -0.544006
 H          8.465561    3.797378   -0.324236
 H          9.039776    2.650941   -1.552849
 C          8.917673    2.224823    1.917774
 H          8.771456    3.280710    2.169415
 H          7.941134    1.730126    1.951554
 H          9.559442    1.773940    2.681017
 C         21.084266    5.339548   -0.118777
 C         21.515730    4.170011   -0.713893
 S         22.468240    6.310762    0.362751
 C         22.930010    4.053621   -0.787821
 H         20.837572    3.422234   -1.109262
 C         23.579406    5.132245   -0.247323
 H         23.443360    3.206316   -1.228494
 H         24.644381    5.304912   -0.167369
 C         -0.307202   -6.629215   -0.172438
 S         -1.632065   -7.768870    0.001101
 C         -0.793453   -5.327795   -0.091850
 C         -2.814334   -6.483795    0.177017
 C         -2.181447   -5.247777    0.098316
 H         -0.160631   -4.452767   -0.179591
 C         -4.224706   -6.757901    0.377164
 H         -2.709032   -4.305496    0.186976
 C         -5.176113   -5.711275    0.333841
 C         -4.702420   -8.069736    0.623351
 C         -6.506733   -6.006789    0.535507
 H         -4.886755   -4.685282    0.133880
 C         -6.047643   -8.357347    0.824927
 H         -3.995302   -8.892731    0.670432
 C         -7.652192   -5.069359    0.522434
 C         -6.983298   -7.311386    0.785434
 H         -6.338188   -9.382087    1.011505
 C         -8.864478   -5.873954    0.793425
 O         -7.582801   -3.859723    0.324393
 C         -8.446724   -7.269632    0.953969
 C        -10.153897   -5.383618    0.888345
 C         -9.245453   -8.382615    1.213771
 C        -10.737259   -4.098265    0.756854
 H        -10.919664   -6.117736    1.112629
 C         -8.726979   -9.703496    1.354285
 C        -10.661902   -8.346502    1.369154
 C        -12.128787   -3.926874    0.924590
 S         -9.960168   -2.540475    0.376072
 N         -8.352539  -10.801227    1.478009
 N        -11.820714   -8.371970    1.504308
 C        -12.550218   -2.612300    0.755261
 H        -12.771695   -4.768400    1.161257
 C        -11.493795   -1.751235    0.452296
 C        -13.866487   -1.853718    0.812794
 C        -11.969042   -0.404571    0.279372
 C        -13.381001   -0.434646    0.486901
 C        -14.499109   -1.923613    2.221638
 C        -14.868007   -2.366796   -0.246716
 C        -11.291747    0.787511   -0.034451
 C        -14.127636    0.725446    0.383643
 H        -15.408201   -1.314072    2.264857
 H        -14.772472   -2.956200    2.464594
 H        -13.804940   -1.561843    2.986594
 H        -15.148846   -3.404059   -0.034007
 H        -15.781101   -1.761678   -0.236616
 H        -14.438057   -2.325296   -1.252353
 C        -12.038999    1.947433   -0.139333
 H        -10.216274    0.788749   -0.189558
 C        -13.450142    1.917290    0.069354
 H        -15.203285    0.724134    0.537634
 C        -11.553927    3.365053   -0.472263
 C        -13.926436    3.263526   -0.109441
 C        -12.870792    4.123019   -0.420148
 C        -10.919549    3.427517   -1.880606
 C        -10.554014    3.884298    0.585856
 S        -15.460143    4.050557   -0.035122
 C        -13.295359    5.434451   -0.603395
 H        -10.645894    4.458790   -2.128833
 H        -10.010369    2.817836   -1.919427
 H        -11.612644    3.061462   -2.644479
 H        -10.985522    3.848580    1.591049
 H         -9.641141    3.278786    0.580705
 H        -10.272443    4.920240    0.367628
 C        -14.686975    5.604642   -0.436109
 H        -12.654574    6.274056   -0.852732
 C        -15.273678    6.884664   -0.595253
 C        -16.563112    7.374415   -0.505587
 H        -14.509967    7.613582   -0.842409
 C        -17.770372    6.580982   -0.180251
 C        -16.986140    8.761007   -0.711884
 O        -17.830207    5.378452    0.059466
 C        -18.915833    7.515938   -0.195129
 C        -18.458375    8.809589   -0.508748
 C        -16.203118    9.858636   -1.038094
 C        -20.252280    7.233659    0.051003
 C        -19.383466    9.857533   -0.576109
 C        -16.723549   11.176454   -1.217636
 C        -14.789586    9.817232   -1.236452
 C        -21.169665    8.284949   -0.018434
 H        -20.560126    6.220141    0.289183
 C        -20.732072    9.578206   -0.328719
 H        -19.090275   10.871186   -0.812012
 N        -17.089603   12.271551   -1.376493
 N        -13.636768    9.839570   -1.409444
 H        -22.223725    8.102259    0.167959
 H        -21.453078   10.388690   -0.380008
