       182
S0: Total Energy = -9945.82864859
 C          9.386195   -6.191702   -1.953388
 C         10.762019   -6.076789   -2.286075
 C         11.265695   -4.817727   -1.947918
 C         10.323772   -3.949018   -1.364411
 C         10.900478   -2.698026   -1.063239
 C         12.256504   -2.622630   -1.406005
 C         12.723887   -1.355721   -1.014168
 C         14.031272   -0.771207   -0.997190
 C         14.217364    0.527814   -0.387034
 S          8.759818   -4.683952   -1.224631
 S         12.874721   -4.090649   -2.124208
 C         10.841264    6.383646    2.100599
 C         12.223417    6.115567    1.916228
 C         12.432462    4.820973    1.432476
 C         11.255848    4.072772    1.238974
 C         11.546917    2.775716    0.768241
 C         12.918777    2.548413    0.600688
 C         13.074471    1.248390    0.088161
 C         11.765036    0.689603   -0.010451
 C         11.605501   -0.661079   -0.463263
 S          9.835258    4.972388    1.661409
 S         13.908567    3.924051    1.026101
 C          8.676135   -7.388494   -2.195980
 C          7.370334   -7.805341   -1.992730
 C          6.278129   -6.994529   -1.416908
 O          6.330720   -5.832074   -1.023235
 C          5.070466   -7.851599   -1.397810
 C          3.810365   -7.521830   -0.938513
 C          2.785984   -8.489896   -0.998039
 C          3.107361   -9.761976   -1.521025
 C          4.384083  -10.087147   -1.976611
 C          5.392701   -9.117555   -1.921051
 C          6.822546   -9.125960   -2.311481
 C          7.472198  -10.217335   -2.873610
 C          6.829423  -11.464162   -3.139855
 N          6.355100  -12.501932   -3.378025
 C          8.846615  -10.236795   -3.256114
 N          9.962501  -10.309083   -3.587582
 H          9.326414   -8.131335   -2.641153
 H          3.635269   -6.534367   -0.524393
 H          4.558463  -11.080262   -2.367115
 C         10.401076    7.638270    2.578708
 C          9.163715    8.194384    2.859901
 C          7.853488    7.527369    2.702979
 O          7.637791    6.384703    2.306230
 C          6.820600    8.501080    3.117408
 C          5.443800    8.327975    3.142472
 C          4.654793    9.396155    3.576301
 C          5.256378   10.597396    3.969769
 C          6.645348   10.766365    3.942749
 C          7.442094    9.700887    3.509363
 C          8.914817    9.545817    3.363085
 C          9.837299   10.536690    3.667088
 C          9.477841   11.831220    4.151980
 N          9.246756   12.902513    4.548615
 C         11.252025   10.396872    3.538851
 N         12.413758   10.339665    3.455028
 H         11.245490    8.292384    2.757490
 H          5.007860    7.383550    2.831360
 H          7.066633   11.711567    4.255957
 N         10.839547    1.650377    0.382844
 N         10.503784   -1.509456   -0.475550
 N         15.152060   -1.321800   -1.447243
 N         15.477080    0.946104   -0.381444
 C          9.273626   -1.409740    0.310161
 H          9.014926   -2.405588    0.675804
 H          9.441045   -0.770399    1.176670
 H          8.439806   -1.024067   -0.282059
 C          9.405527    1.701198    0.096199
 H          8.804241    1.397223    0.957041
 H          9.142460    2.726593   -0.171915
 H          9.178331    1.064704   -0.758886
 C         13.333688    7.091438    2.197420
 H         13.257063    7.983099    1.565537
 H         13.321054    7.431610    3.238230
 H         14.308119    6.633159    2.009192
 C         11.586483   -7.163812   -2.920651
 H         11.620149   -8.063469   -2.296781
 H         11.182277   -7.461388   -3.894173
 H         12.615127   -6.828113   -3.075897
 S         16.372359   -0.246650   -1.111810
 H          4.634658   11.422025    4.305627
 H          3.573856    9.297778    3.609963
 H          2.332684  -10.520013   -1.589832
 C          1.439750   -8.167551   -0.529662
 C          0.885927   -6.918688   -0.321855
 S          0.270667   -9.414540   -0.143847
 C         -0.450790   -6.956532    0.135340
 H          1.421400   -5.994973   -0.508589
 C         -0.949982   -8.235487    0.293100
 H         -1.024459   -6.064544    0.359611
 C         -2.278206   -8.634209    0.754413
 C         -3.343576   -7.709669    0.739877
 C         -2.540439   -9.938221    1.229561
 C         -4.584176   -8.110367    1.195900
 H         -3.214223   -6.700451    0.363416
 C         -3.798136  -10.335413    1.680947
 H         -1.733271  -10.663984    1.264193
 C         -5.826413   -7.306375    1.260968
 C         -4.847358   -9.408356    1.671479
 H         -3.926641  -11.349522    2.033405
 C         -6.877225   -8.184842    1.813966
 O         -5.932082   -6.132411    0.914996
 C         -6.271271   -9.492590    2.074523
 C         -8.196991   -7.831735    2.046514
 C         -6.867734  -10.631231    2.600858
 C         -8.957321   -6.655155    1.866309
 H         -8.811814   -8.620129    2.462793
 C         -6.169876  -11.858638    2.813144
 C         -8.235334  -10.723444    2.996844
 C        -10.332475   -6.611650    2.218617
 S         -8.399633   -5.089269    1.207282
 N         -5.649518  -12.883491    3.007038
 N         -9.343224  -10.855446    3.336650
 C        -10.888921   -5.358153    1.950241
 C        -11.105549   -7.760821    2.806715
 C         -9.988865   -4.424288    1.402054
 S        -12.521657   -4.703981    2.184022
 H        -11.115749   -8.627070    2.136451
 H        -10.674904   -8.093515    3.757216
 H        -12.143420   -7.473383    2.994199
 C        -10.616466   -3.182157    1.175167
 C        -11.969151   -3.177192    1.538938
 N        -10.272907   -1.948340    0.649971
 C        -12.488883   -1.908830    1.225990
 C        -11.405380   -1.142759    0.701003
 C         -9.061464   -1.759598   -0.148803
 C        -13.816522   -1.372940    1.261946
 C        -11.621150    0.225026    0.330585
 H         -8.229281   -1.382775    0.451482
 H         -8.777152   -2.722047   -0.579365
 H         -9.266221   -1.074310   -0.971047
 C        -14.059205   -0.048080    0.732358
 N        -14.909116   -1.989638    1.695289
 C        -12.950860    0.740559    0.284247
 N        -10.736790    1.240421   -0.017504
 N        -15.332996    0.323316    0.770123
 S        -16.172565   -0.942088    1.442076
 C        -12.849567    2.073967   -0.150682
 C        -11.489662    2.360532   -0.324117
 C         -9.302189    1.325974    0.257261
 S        -13.893930    3.436944   -0.473952
 C        -11.252357    3.694392   -0.716690
 H         -9.072282    2.342291    0.583924
 H         -9.041894    0.648137    1.069983
 H         -8.701440    1.095928   -0.626462
 C        -12.457355    4.410617   -0.843385
 S         -9.872299    4.668917   -1.106776
 C        -12.302124    5.741377   -1.243133
 C        -10.934289    6.069562   -1.432822
 C        -13.450366    6.693430   -1.442026
 C        -10.545135    7.371082   -1.823480
 H        -13.366853    7.571767   -0.793163
 H        -13.497628    7.058038   -2.473943
 H        -14.401884    6.203924   -1.218502
 C         -9.333726    7.986987   -2.089448
 H        -11.413604    8.008606   -1.934278
 C         -8.003179    7.345022   -2.049541
 C         -9.139559    9.385710   -2.481414
 O         -7.738997    6.181826   -1.755726
 C         -7.016163    8.376306   -2.442751
 C         -7.688008    9.586756   -2.696615
 C        -10.097422   10.380916   -2.627921
 C         -5.645856    8.235785   -2.547944
 C         -6.926338   10.698459   -3.076876
 C         -9.788089   11.718608   -3.019779
 C        -11.495437   10.203793   -2.404646
 C         -4.871233    9.347491   -2.940171
 H         -5.187261    7.281118   -2.312064
 C         -5.544149   10.562734   -3.196237
 H         -7.374064   11.659220   -3.290891
 N         -9.592736   12.823149   -3.336893
 N        -12.646179   10.117098   -2.235403
 C         -3.420011    9.228044   -3.076014
 H         -4.971606   11.428785   -3.514977
 C         -2.668304    8.079522   -3.217241
 S         -2.368543   10.635566   -3.075697
 C         -1.271046    8.320258   -3.328116
 H         -3.106493    7.088938   -3.265333
 C         -0.956791    9.651851   -3.268921
 H         -0.532072    7.536562   -3.452669
 H          0.018839   10.115981   -3.324215
       182
T1: Total Energy = -9945.78327245
 C          9.369633   -6.235512   -1.846713
 C         10.745896   -6.119364   -2.175741
 C         11.245288   -4.856421   -1.844764
 C         10.299406   -3.986236   -1.270429
 C         10.871412   -2.730661   -0.978558
 C         12.227700   -2.653444   -1.319514
 C         12.689473   -1.380719   -0.939717
 C         13.994233   -0.790268   -0.927377
 C         14.173618    0.516659   -0.332115
 S          8.737248   -4.724997   -1.129243
 S         12.852334   -4.125639   -2.023504
 C         10.766499    6.389072    2.072539
 C         12.150176    6.124997    1.893489
 C         12.365988    4.824671    1.428668
 C         11.193167    4.068202    1.244003
 C         11.490991    2.766407    0.791004
 C         12.864175    2.543366    0.628461
 C         13.026805    1.237626    0.132869
 C         11.720153    0.671586    0.039191
 C         11.567385   -0.684938   -0.398122
 S          9.767771    4.967074    1.651594
 S         13.846881    3.929172    1.036925
 C          8.662043   -7.434509   -2.088103
 C          7.355969   -7.851966   -1.890577
 C          6.260513   -7.041860   -1.319374
 O          6.311770   -5.880283   -0.922820
 C          5.052452   -7.898316   -1.309778
 C          3.789272   -7.568000   -0.860161
 C          2.762657   -8.533573   -0.931834
 C          3.087592   -9.804561   -1.456678
 C          4.367447  -10.130664   -1.901706
 C          5.377722   -9.163266   -1.834358
 C          6.809595   -9.172575   -2.213663
 C          7.463521  -10.264011   -2.771348
 C          6.822385  -11.510423   -3.043120
 N          6.349527  -12.547931   -3.285461
 C          8.840838  -10.284109   -3.142866
 N          9.959303  -10.357200   -3.465517
 H          9.315228   -8.177671   -2.528453
 H          3.613100   -6.580796   -0.446091
 H          4.543314  -11.122899   -2.293847
 C         10.319883    7.647463    2.534260
 C          9.079469    8.201621    2.806062
 C          7.772275    7.528438    2.650556
 O          7.562332    6.380146    2.267159
 C          6.734006    8.504205    3.046344
 C          5.357554    8.327583    3.064453
 C          4.562743    9.399013    3.479293
 C          5.158425   10.606852    3.861350
 C          6.547106   10.779272    3.841635
 C          7.349619    9.710569    3.427279
 C          8.823738    9.557596    3.293130
 C          9.741721   10.553374    3.594907
 C          9.375678   11.851947    4.063774
 N          9.139210   12.926695    4.447704
 C         11.157797   10.414686    3.481185
 N         12.320352   10.358527    3.408763
 H         11.161030    8.307525    2.706494
 H          4.926259    7.378092    2.762410
 H          6.963709   11.729642    4.145331
 N         10.789531    1.632812    0.418923
 N         10.469060   -1.537885   -0.403365
 N         15.118147   -1.340906   -1.369540
 N         15.431418    0.940715   -0.329750
 C          9.238166   -1.435831    0.380939
 H          8.985651   -2.428514    0.759363
 H          9.401357   -0.784179    1.239016
 H          8.402054   -1.063135   -0.216307
 C          9.355903    1.673031    0.128534
 H          8.754215    1.378758    0.992461
 H          9.088695    2.693191   -0.155159
 H          9.133492    1.023038   -0.717581
 C         13.255359    7.110308    2.161476
 H         13.171664    7.994795    1.520493
 H         13.243456    7.461324    3.198714
 H         14.232045    6.656063    1.975152
 C         11.575049   -7.208198   -2.801168
 H         11.608137   -8.104372   -2.172306
 H         11.175246   -7.511968   -3.774613
 H         12.603600   -6.871261   -2.954387
 S         16.333096   -0.256382   -1.045045
 H          4.532206   11.434052    4.182201
 H          3.481866    9.298113    3.506830
 H          2.312921  -10.561668   -1.534843
 C          1.412917   -8.210916   -0.476637
 C          0.869219   -6.963473   -0.234440
 S          0.219222   -9.455714   -0.160016
 C         -0.476614   -7.000219    0.194342
 H          1.418990   -6.039983   -0.375277
 C         -0.995748   -8.277359    0.295260
 H         -1.043695   -6.109555    0.439485
 C         -2.339120   -8.674498    0.709899
 C         -3.391797   -7.732842    0.710655
 C         -2.633265   -9.991554    1.122759
 C         -4.647376   -8.133646    1.119460
 H         -3.238588   -6.710643    0.380748
 C         -3.908761  -10.388719    1.526438
 H         -1.838385  -10.731456    1.146241
 C         -5.880586   -7.318085    1.191652
 C         -4.943738   -9.446854    1.531610
 H         -4.060485  -11.414699    1.832342
 C         -6.956789   -8.203993    1.689110
 O         -5.965920   -6.129260    0.893365
 C         -6.380186   -9.524965    1.889279
 C         -8.277431   -7.829883    1.940188
 C         -7.017937  -10.689525    2.324024
 C         -9.006022   -6.632420    1.792315
 H         -8.904991   -8.616552    2.338178
 C         -6.344463  -11.934451    2.494024
 C         -8.403076  -10.791151    2.641960
 C        -10.391724   -6.562436    2.157026
 S         -8.414519   -5.073781    1.156733
 N         -5.842473  -12.975704    2.651439
 N         -9.528395  -10.939711    2.914104
 C        -10.916045   -5.302631    1.910049
 C        -11.171037   -7.709893    2.736906
 C        -10.000208   -4.370006    1.364516
 S        -12.542727   -4.624242    2.164633
 H        -11.170619   -8.580062    2.071465
 H        -10.751838   -8.037888    3.694948
 H        -12.212086   -7.423700    2.910092
 C        -10.595907   -3.127256    1.158218
 C        -11.968857   -3.098335    1.531549
 N        -10.233438   -1.899318    0.646078
 C        -12.463484   -1.839264    1.236004
 C        -11.357316   -1.064837    0.708268
 C         -9.034746   -1.729190   -0.176882
 C        -13.782075   -1.274700    1.310951
 C        -11.545004    0.288863    0.388907
 H         -8.187160   -1.361295    0.406811
 H         -8.771476   -2.696488   -0.609915
 H         -9.247024   -1.042820   -0.996682
 C        -14.002892    0.069426    0.832292
 N        -14.876834   -1.881046    1.745552
 C        -12.882763    0.847605    0.383029
 N        -10.650023    1.300276    0.018352
 N        -15.263914    0.469354    0.905078
 S        -16.124134   -0.798225    1.552338
 C        -12.768572    2.160189   -0.044998
 C        -11.389356    2.430919   -0.260488
 C         -9.210464    1.362417    0.276815
 S        -13.796932    3.543437   -0.339208
 C        -11.145723    3.747631   -0.649141
 H         -8.959495    2.375111    0.599304
 H         -8.953246    0.680589    1.087501
 H         -8.624933    1.120067   -0.613618
 C        -12.346324    4.492468   -0.743937
 S         -9.754823    4.712407   -1.076772
 C        -12.185636    5.812576   -1.139584
 C        -10.805497    6.125387   -1.365523
 C        -13.314668    6.790162   -1.314090
 C        -10.411339    7.421458   -1.757360
 H        -13.190503    7.673414   -0.678211
 H        -13.382717    7.145446   -2.348594
 H        -14.271569    6.327187   -1.058051
 C         -9.188303    8.018633   -2.054749
 H        -11.269345    8.075972   -1.839727
 C         -7.870087    7.345725   -2.068253
 C         -8.975066    9.409639   -2.435515
 O         -7.625098    6.174111   -1.790761
 C         -6.873742    8.354873   -2.491069
 C         -7.528830    9.581941   -2.708718
 C         -9.918454   10.433021   -2.526868
 C         -5.512777    8.184387   -2.649693
 C         -6.757959   10.678723   -3.109876
 C         -9.594069   11.764772   -2.920909
 C        -11.306096   10.292333   -2.233111
 C         -4.728077    9.282538   -3.063437
 H         -5.066478    7.218163   -2.438539
 C         -5.383438   10.512945   -3.284240
 H         -7.191909   11.650948   -3.299228
 N         -9.384760   12.867393   -3.238331
 N        -12.449257   10.241426   -2.004047
 C         -3.286159    9.131333   -3.255580
 H         -4.804858   11.369027   -3.618963
 C         -2.567223    7.967932   -3.438966
 S         -2.202184   10.514109   -3.276609
 C         -1.169532    8.177863   -3.599262
 H         -3.030320    6.988504   -3.483090
 C         -0.821670    9.500717   -3.535637
 H         -0.454514    7.378900   -3.761418
 H          0.161802    9.942975   -3.622282
       182
S1: Total Energy = -9945.77011261
 C          9.450261   -6.362976   -1.281392
 C         10.835063   -6.216417   -1.557552
 C         11.266489   -4.906657   -1.323880
 C         10.262279   -4.031554   -0.870958
 C         10.769208   -2.732328   -0.667740
 C         12.137349   -2.624328   -0.955801
 C         12.529658   -1.307883   -0.664215
 C         13.807799   -0.660928   -0.649346
 C         13.908088    0.697560   -0.160840
 S          8.723209   -4.822659   -0.739297
 S         12.850255   -4.124307   -1.501569
 C         10.164956    6.582453    1.635986
 C         11.565624    6.366551    1.528086
 C         11.852930    5.045637    1.177150
 C         10.720141    4.225033    1.008713
 C         11.088834    2.908178    0.671511
 C         12.477392    2.733232    0.578685
 C         12.713827    1.403145    0.196260
 C         11.434731    0.772412    0.098154
 C         11.356066   -0.617432   -0.229672
 S          9.243072    5.089190    1.293789
 S         13.384804    4.188221    0.914472
 C          8.803058   -7.613548   -1.423436
 C          7.503684   -8.061730   -1.250677
 C          6.336852   -7.227972   -0.890550
 O          6.319912   -6.025041   -0.640142
 C          5.155738   -8.119590   -0.893003
 C          3.846451   -7.781809   -0.626488
 C          2.852425   -8.787309   -0.674264
 C          3.267381  -10.104378   -0.990159
 C          4.592622  -10.435848   -1.253463
 C          5.570483   -9.429974   -1.210477
 C          7.027959   -9.435934   -1.428983
 C          7.776502  -10.574649   -1.728833
 C          7.202522  -11.870218   -1.887151
 N          6.782400  -12.949203   -2.028712
 C          9.190819  -10.595355   -1.899175
 N         10.346310  -10.671702   -2.045839
 H          9.506668   -8.371801   -1.743636
 H          3.606045   -6.755100   -0.371947
 H          4.833913  -11.462714   -1.491746
 C          9.648811    7.852128    1.976149
 C          8.375862    8.368971    2.163682
 C          7.106790    7.618788    2.052898
 O          6.959788    6.434625    1.759438
 C          6.015711    8.566217    2.367787
 C          4.650827    8.317768    2.401516
 C          3.798088    9.374331    2.731468
 C          4.326994   10.638655    3.016078
 C          5.704571   10.883811    2.979663
 C          6.564605    9.830621    2.649910
 C          8.045012    9.747545    2.521843
 C          8.905581   10.820749    2.709832
 C          8.467997   12.134169    3.060205
 N          8.171825   13.224731    3.345965
 C         10.324836   10.757868    2.573244
 N         11.486892   10.766261    2.474557
 H         10.453764    8.561747    2.121920
 H          4.272123    7.325338    2.176746
 H          6.068674   11.876019    3.207676
 N         10.450598    1.719229    0.364485
 N         10.293463   -1.516495   -0.211838
 N         14.971035   -1.196100   -0.998438
 N         15.146136    1.175502   -0.144353
 C          9.024960   -1.408472    0.509248
 H          8.798459   -2.378167    0.957299
 H          9.120109   -0.682365    1.316420
 H          8.201387   -1.125362   -0.151363
 C          9.030753    1.673741    0.013609
 H          8.403996    1.423274    0.873439
 H          8.735335    2.655049   -0.363501
 H          8.872162    0.948933   -0.784495
 C         12.616601    7.417348    1.763266
 H         12.479413    8.284088    1.108288
 H         12.593182    7.785512    2.794968
 H         13.615477    7.014453    1.576593
 C         11.735946   -7.315274   -2.052866
 H         11.663584   -8.217711   -1.438113
 H         11.484705   -7.603184   -3.080526
 H         12.780111   -6.990891   -2.045292
 S         16.126062   -0.035960   -0.719382
 H          3.656449   11.453441    3.272796
 H          2.724147    9.217677    2.768922
 H          2.525700  -10.896006   -1.044508
 C          1.461606   -8.463925   -0.408874
 C          0.880215   -7.208730   -0.290460
 S          0.240253   -9.706199   -0.190616
 C         -0.501845   -7.239287   -0.036983
 H          1.437859   -6.285689   -0.397621
 C         -1.032756   -8.520144    0.053167
 H         -1.096268   -6.341766    0.086456
 C         -2.406503   -8.905422    0.311514
 C         -3.435456   -7.933322    0.346979
 C         -2.776142  -10.255631    0.541357
 C         -4.726919   -8.332060    0.610413
 H         -3.233728   -6.883672    0.161749
 C         -4.082891  -10.650115    0.801102
 H         -2.008924  -11.024520    0.526265
 C         -5.934304   -7.485461    0.688393
 C         -5.097227   -9.676883    0.845008
 H         -4.287246  -11.698514    0.970829
 C         -7.065519   -8.382894    1.029883
 O         -5.971745   -6.270271    0.512059
 C         -6.541142   -9.751551    1.083067
 C         -8.359869   -7.987323    1.313080
 C         -7.262609  -10.935312    1.287356
 C         -9.045373   -6.741916    1.286171
 H         -9.021902   -8.782347    1.631702
 C         -6.650563  -12.219538    1.347739
 C         -8.676697  -11.007470    1.426615
 C        -10.409165   -6.647886    1.675333
 S         -8.397265   -5.169734    0.754095
 N         -6.191903  -13.291330    1.408090
 N         -9.833727  -11.122834    1.539520
 C        -10.889565   -5.343992    1.524387
 C        -11.233765   -7.792606    2.198209
 C         -9.946795   -4.424352    1.025705
 S        -12.477877   -4.618756    1.858289
 H        -11.196387   -8.664388    1.537217
 H        -10.881733   -8.118246    3.184312
 H        -12.281961   -7.498533    2.301152
 C        -10.498017   -3.138454    0.912139
 C        -11.852395   -3.079418    1.314201
 N        -10.091810   -1.899817    0.465361
 C        -12.298883   -1.777750    1.103415
 C        -11.174477   -1.027068    0.600158
 C         -8.891421   -1.732265   -0.356336
 C        -13.590423   -1.165990    1.231679
 C        -11.312057    0.357687    0.353108
 H         -8.026215   -1.435055    0.241262
 H         -8.672490   -2.683379   -0.845585
 H         -9.079971   -0.992924   -1.134446
 C        -13.763733    0.209249    0.827777
 N        -14.703766   -1.750263    1.651951
 C        -12.620936    0.964339    0.402703
 N        -10.382877    1.348092    0.030739
 N        -15.007339    0.654390    0.943148
 S        -15.906563   -0.610419    1.536154
 C        -12.457547    2.301497    0.053037
 C        -11.078082    2.523208   -0.166065
 C         -8.932859    1.332806    0.233635
 S        -13.429599    3.740951   -0.138828
 C        -10.781061    3.856322   -0.481909
 H         -8.625518    2.314431    0.599633
 H         -8.676804    0.597997    0.996236
 H         -8.393518    1.115144   -0.691454
 C        -11.948088    4.649053   -0.510980
 S         -9.359083    4.780327   -0.869860
 C        -11.732364    5.988656   -0.833758
 C        -10.351454    6.249404   -1.061852
 C        -12.824991    7.018061   -0.929530
 C         -9.905189    7.552074   -1.397036
 H        -12.660990    7.849661   -0.235939
 H        -12.889590    7.445374   -1.936172
 H        -13.796028    6.574933   -0.693395
 C         -8.669299    8.111914   -1.673192
 H        -10.739004    8.241264   -1.438191
 C         -7.371923    7.396405   -1.691398
 C         -8.403157    9.514611   -2.002712
 O         -7.173725    6.205548   -1.465984
 C         -6.335929    8.392224   -2.038276
 C         -6.947612    9.648901   -2.218898
 C         -9.315731   10.561248   -2.104026
 C         -4.976584    8.185906   -2.164418
 C         -6.129593   10.738340   -2.545778
 C         -8.941641   11.897630   -2.435353
 C        -10.720725   10.440301   -1.894740
 C         -4.145364    9.276330   -2.500606
 H         -4.568878    7.196221   -1.987533
 C         -4.757481   10.537066   -2.683595
 H         -6.527408   11.731613   -2.702190
 N         -8.690377   13.004619   -2.702208
 N        -11.875928   10.400866   -1.735074
 C         -2.704355    9.091178   -2.652617
 H         -4.143026   11.389681   -2.957463
 C         -2.007679    7.910642   -2.820194
 S         -1.586573   10.447691   -2.638534
 C         -0.602431    8.087372   -2.940017
 H         -2.491050    6.942010   -2.879511
 C         -0.225151    9.401947   -2.861392
 H          0.097777    7.272160   -3.084510
 H          0.770791    9.820498   -2.918713
