       182
S0: Total Energy = -10342.7416105
 C          9.556164   -6.255403   -1.858701
 C         10.935106   -6.211493   -2.200305
 C         11.495475   -4.967348   -1.901428
 C         10.595361   -4.040749   -1.340056
 C         11.227232   -2.807431   -1.081190
 C         12.583291   -2.801733   -1.433414
 C         13.106742   -1.543896   -1.087150
 C         14.437744   -1.014885   -1.097849
 C         14.682747    0.295488   -0.534650
 S          9.001584   -4.700725   -1.171331
 S         13.133598   -4.316757   -2.107628
 C         11.568674    6.369699    1.764043
 C         12.938239    6.039490    1.576763
 C         13.090190    4.721093    1.140761
 C         11.881811    4.015258    0.982284
 C         12.115830    2.692205    0.555337
 C         13.476239    2.402369    0.387862
 C         13.574391    1.079874   -0.078740
 C         12.241946    0.573385   -0.150338
 C         12.022332   -0.784103   -0.554389
 S         10.502779    4.984624    1.386508
 S         14.525190    3.749608    0.758563
 C          8.793922   -7.424953   -2.067383
 C          7.471058   -7.782388   -1.853283
 C          6.419338   -6.905427   -1.296478
 O          6.540548   -5.740354   -0.932963
 C          5.174226   -7.709651   -1.263011
 C          3.911493   -7.351470   -0.830278
 C          2.833646   -8.261914   -0.869991
 C          3.128364   -9.548162   -1.372507
 C          4.394760   -9.930168   -1.810027
 C          5.437942   -9.001076   -1.759071
 C          6.869155   -9.081390   -2.142078
 C          7.470213  -10.216210   -2.672395
 C          6.776231  -11.440147   -2.913982
 N          6.260978  -12.462738   -3.132002
 C          8.845113  -10.306994   -3.042417
 N          9.959038  -10.438483   -3.362011
 H          9.409711   -8.206669   -2.494492
 H          4.532624  -10.934552   -2.183994
 C         11.185280    7.658671    2.193341
 C          9.975964    8.277083    2.473302
 C          8.642792    7.639861    2.402012
 O          8.388985    6.490333    2.056026
 C          7.663379    8.659577    2.835532
 C          6.285297    8.572197    2.963516
 C          5.545840    9.668368    3.401766
 C          6.216537   10.853236    3.708888
 C          7.607364   10.967797    3.586797
 C          8.334654    9.859850    3.145758
 C          9.792267    9.656785    2.912409
 C         10.751840   10.645283    3.082377
 C         10.458708   11.973075    3.518648
 N         10.283619   13.070189    3.871006
 C         12.146808   10.470535    2.835440
 N         13.294814   10.386544    2.648604
 H         12.057189    8.285487    2.333362
 H          8.080697   11.905913    3.838223
 N         11.359828    1.584648    0.213378
 N         10.885433   -1.584191   -0.531402
 N         15.530970   -1.627723   -1.534750
 N         15.958876    0.660019   -0.550878
 C          9.666678   -1.406006    0.259082
 H          9.371666   -2.376360    0.663719
 H          9.867510   -0.742129    1.099647
 H          8.843455   -1.009421   -0.340691
 C          9.928271    1.685806   -0.073337
 H          9.317429    1.438204    0.798493
 H          9.708123    2.711267   -0.377375
 H          9.672217    1.029690   -0.905010
 C         14.089578    6.978284    1.815223
 H         14.008215    7.885022    1.206634
 H         14.139267    7.295955    2.862607
 H         15.039108    6.496025    1.568733
 C         11.706576   -7.351805   -2.807032
 H         11.703146   -8.234010   -2.157910
 H         11.284088   -7.658256   -3.770008
 H         12.748405   -7.067540   -2.976256
 S         16.797902   -0.594197   -1.244227
 H          5.644946   11.709742    4.052459
 H          4.468716    9.583227    3.497481
 H          2.326571  -10.276928   -1.438428
 C          1.494977   -7.901430   -0.410374
 C          0.938611   -6.651966   -0.204602
 S          0.314166   -9.148423   -0.051745
 C         -0.409669   -6.688868    0.216893
 H          1.479759   -5.730606   -0.366381
 C         -0.915140   -7.967846    0.363581
 H         -0.987353   -5.798552    0.421050
 C         -2.238234   -8.402691    0.803719
 C         -3.353411   -7.537612    0.795488
 C         -2.479415   -9.719358    1.252895
 C         -4.601381   -7.966069    1.206581
 C         -3.729890  -10.171758    1.668736
 H         -1.647350  -10.415281    1.293470
 C         -5.880606   -7.218420    1.262525
 C         -4.811462   -9.286425    1.649204
 H         -3.826392  -11.195532    2.000707
 C         -6.898484   -8.164625    1.766068
 O         -6.049044   -6.044532    0.949575
 C         -6.239364   -9.442565    2.021312
 C         -8.244412   -7.884183    1.950238
 C         -6.788230  -10.615574    2.524476
 C         -9.058841   -6.746079    1.767699
 H         -8.833256   -8.715934    2.316525
 C         -6.040410  -11.813446    2.733762
 C         -8.154867  -10.773543    2.902328
 C        -10.450908   -6.790114    2.051730
 S         -8.559233   -5.129486    1.189270
 N         -5.480283  -12.817805    2.924170
 N         -9.259206  -10.959509    3.228043
 C        -11.062815   -5.560705    1.796754
 C        -11.187642   -8.001747    2.554610
 C        -10.190209   -4.559284    1.327736
 S        -12.740434   -5.006886    1.963415
 H        -11.167184   -8.816724    1.822369
 H        -10.750755   -8.389195    3.480717
 H        -12.235108   -7.761963    2.755418
 C        -10.875164   -3.346793    1.108370
 C        -12.243257   -3.430118    1.398658
 N        -10.576727   -2.078472    0.641396
 C        -12.818322   -2.183644    1.096765
 C        -11.754819   -1.340147    0.655052
 C         -9.332538   -1.791596   -0.073610
 C        -14.175673   -1.727271    1.073083
 C        -12.031507    0.023893    0.311429
 H         -8.562797   -1.388754    0.589657
 H         -8.965113   -2.720334   -0.514978
 H         -9.527473   -1.091646   -0.885784
 C        -14.467868   -0.403541    0.566871
 N        -15.251383   -2.419899    1.426357
 C        -13.385702    0.461535    0.203748
 N        -11.192585    1.099172    0.039629
 N        -15.761734   -0.108609    0.541669
 S        -16.559689   -1.440936    1.129856
 C        -13.341669    1.809985   -0.191546
 C        -11.993914    2.180829   -0.281221
 C         -9.782730    1.263286    0.396091
 S        -14.447440    3.116166   -0.543629
 C        -11.816256    3.535494   -0.630556
 H         -9.635763    2.279795    0.766865
 H         -9.524110    0.574940    1.200305
 H         -9.122376    1.101825   -0.459752
 C        -13.053953    4.182044   -0.810795
 S        -10.477940    4.598000   -0.922226
 C        -12.957462    5.527631   -1.175606
 C        -11.602453    5.940703   -1.281220
 C        -14.148301    6.412573   -1.426189
 C        -11.273382    7.270283   -1.626787
 H        -14.142376    7.296647   -0.780183
 H        -14.172695    6.769747   -2.461694
 H        -15.079122    5.870661   -1.239743
 C        -10.090792    7.968204   -1.814212
 H        -12.172268    7.855349   -1.776774
 C         -8.727896    7.404346   -1.704431
 C         -9.966671    9.379750   -2.171890
 O         -8.424733    6.252181   -1.412698
 C         -7.789154    8.505945   -2.023284
 C         -8.520206    9.677696   -2.300879
 C        -10.975301   10.317210   -2.357327
 C         -6.407610    8.494873   -2.066486
 C         -7.822970   10.843875   -2.628949
 C        -10.733968   11.680160   -2.706835
 C        -12.369176   10.047037   -2.217863
 C         -5.669990    9.651576   -2.397763
 C         -6.430790   10.808468   -2.674534
 H         -8.325460   11.772743   -2.858184
 N        -10.596746   12.801985   -2.992241
 N        -13.519732    9.884709   -2.116843
 C         -4.209299    9.659663   -2.442989
 H         -5.908130   11.718324   -2.952341
 C         -3.321972    8.603178   -2.522513
 S         -3.324018   11.181262   -2.411594
 C         -1.959176    9.005700   -2.569381
 H         -3.637484    7.570092   -2.562315
 C         -1.802757   10.364703   -2.516919
 H         -1.129897    8.310648   -2.639623
 H         -0.885377   10.937991   -2.528530
 F         -5.760095    7.352562   -1.779005
 F         -3.209269   -6.271010    0.371345
 F          3.716497   -6.109877   -0.355472
 F          5.649486    7.428662    2.667144
       182
T1: Total Energy = -10342.6968614
 C          9.575894   -6.240285   -1.837852
 C         10.969936   -6.188275   -2.171964
 C         11.514948   -4.948473   -1.872831
 C         10.606352   -4.015233   -1.316961
 C         11.222489   -2.791827   -1.058811
 C         12.603334   -2.780326   -1.401887
 C         13.116388   -1.541277   -1.056807
 C         14.447568   -1.002768   -1.084977
 C         14.684744    0.321218   -0.560892
 S          9.004340   -4.692719   -1.160265
 S         13.160361   -4.297101   -2.070355
 C         11.559785    6.372500    1.751017
 C         12.938816    6.038897    1.544782
 C         13.082103    4.728649    1.111911
 C         11.869283    4.012460    0.967605
 C         12.095424    2.703387    0.543631
 C         13.473641    2.410549    0.351255
 C         13.570599    1.109069   -0.113295
 C         12.222263    0.579351   -0.165868
 C         12.014319   -0.760657   -0.529924
 S         10.488471    4.991389    1.394550
 S         14.522552    3.762663    0.710467
 C          8.825537   -7.414873   -2.050467
 C          7.494269   -7.775997   -1.841587
 C          6.435298   -6.894275   -1.294978
 O          6.557453   -5.726828   -0.939541
 C          5.190991   -7.696658   -1.261510
 C          3.926623   -7.338767   -0.837189
 C          2.850161   -8.252822   -0.874750
 C          3.152541   -9.540338   -1.367103
 C          4.422733   -9.922344   -1.797021
 C          5.463618   -8.990960   -1.748230
 C          6.895996   -9.068430   -2.122579
 C          7.507367  -10.211507   -2.646710
 C          6.816266  -11.434700   -2.886087
 N          6.300663  -12.458748   -3.102031
 C          8.882221  -10.305909   -3.007144
 N          9.997706  -10.447281   -3.320739
 H          9.445549   -8.196350   -2.469782
 H          4.564940  -10.928910   -2.163525
 C         11.184732    7.662902    2.177723
 C          9.969450    8.279781    2.472241
 C          8.637411    7.629163    2.434040
 O          8.390590    6.473708    2.102910
 C          7.657318    8.641814    2.877521
 C          6.283853    8.544033    3.034955
 C          5.543135    9.638323    3.478634
 C          6.211520   10.830215    3.759339
 C          7.599580   10.955545    3.606144
 C          8.327242    9.850359    3.160725
 C          9.779989    9.655359    2.895933
 C         10.740061   10.659142    3.029129
 C         10.445008   11.985892    3.460723
 N         10.266039   13.084624    3.808866
 C         12.126852   10.500327    2.739616
 N         13.270366   10.435323    2.516155
 H         12.054847    8.294483    2.300846
 H          8.069907   11.900273    3.837952
 N         11.339991    1.597967    0.214222
 N         10.873422   -1.572956   -0.517398
 N         15.539420   -1.618915   -1.513088
 N         15.954993    0.696364   -0.593237
 C          9.655226   -1.400258    0.276251
 H          9.358211   -2.374125    0.670775
 H          9.858932   -0.745414    1.123481
 H          8.833541   -0.994864   -0.319385
 C          9.907435    1.698371   -0.071076
 H          9.298699    1.436902    0.797917
 H          9.683858    2.726897   -0.361935
 H          9.654133    1.051487   -0.911129
 C         14.083130    6.986962    1.773467
 H         13.988738    7.893631    1.166119
 H         14.138460    7.305440    2.820689
 H         15.035399    6.513533    1.519307
 C         11.738469   -7.332801   -2.771628
 H         11.729359   -8.213237   -2.119579
 H         11.317247   -7.642031   -3.734669
 H         12.782272   -7.053713   -2.939297
 S         16.803615   -0.569014   -1.259273
 H          5.640950   11.685952    4.106885
 H          4.469112    9.545293    3.598086
 H          2.353475  -10.272436   -1.431774
 C          1.508804   -7.893629   -0.423323
 C          0.945241   -6.644832   -0.232262
 S          0.332907   -9.142429   -0.053936
 C         -0.404150   -6.683760    0.185151
 H          1.482579   -5.722709   -0.402500
 C         -0.905156   -7.963361    0.343588
 H         -0.986468   -5.793808    0.377222
 C         -2.227099   -8.400374    0.782303
 C         -3.343673   -7.536483    0.780162
 C         -2.467745   -9.719761    1.225231
 C         -4.590606   -7.967751    1.190940
 C         -3.716929  -10.174952    1.641074
 H         -1.635692  -10.415985    1.260246
 C         -5.870298   -7.221591    1.251241
 C         -4.799490   -9.290433    1.628086
 H         -3.812129  -11.200560    1.967817
 C         -6.887015   -8.171071    1.751642
 O         -6.040658   -6.046516    0.943646
 C         -6.225729   -9.449318    2.001994
 C         -8.232995   -7.893445    1.936719
 C         -6.772989  -10.624085    2.503405
 C         -9.049675   -6.755934    1.757219
 H         -8.820583   -8.727242    2.300362
 C         -6.023740  -11.821740    2.708407
 C         -8.138512  -10.783952    2.884156
 C        -10.441451   -6.803294    2.040512
 S         -8.552855   -5.137230    1.182703
 N         -5.462363  -12.826067    2.895447
 N         -9.241904  -10.971647    3.212233
 C        -11.055781   -5.574352    1.787717
 C        -11.176326   -8.017415    2.540249
 C        -10.185093   -4.570449    1.321137
 S        -12.734592   -5.024283    1.954667
 H        -11.155952   -8.829889    1.805206
 H        -10.738045   -8.407631    3.464507
 H        -12.223817   -7.779362    2.743054
 C        -10.872502   -3.358782    1.103629
 C        -12.240466   -3.445375    1.393069
 N        -10.576446   -2.089244    0.638593
 C        -12.818011   -2.199626    1.092552
 C        -11.756118   -1.353321    0.652525
 C         -9.332346   -1.798806   -0.075075
 C        -14.176298   -1.746090    1.068762
 C        -12.035527    0.010543    0.310352
 H         -8.563905   -1.395304    0.589314
 H         -8.962665   -2.726178   -0.517431
 H         -9.528095   -1.098137   -0.886429
 C        -14.471088   -0.422318    0.564069
 N        -15.250733   -2.441435    1.420628
 C        -13.390601    0.445462    0.202508
 N        -11.198752    1.087845    0.040046
 N        -15.765571   -0.130101    0.538585
 S        -16.560976   -1.464896    1.124703
 C        -13.349220    1.794433   -0.191308
 C        -12.002220    2.168218   -0.280066
 C         -9.789498    1.254622    0.397639
 S        -14.457607    3.098579   -0.542697
 C        -11.827261    3.523479   -0.628162
 H         -9.645036    2.270916    0.769998
 H         -9.529834    0.565660    1.200984
 H         -9.128230    1.095867   -0.458010
 C        -13.066272    4.167653   -0.808395
 S        -10.491041    4.589007   -0.918467
 C        -12.972450    5.513643   -1.172109
 C        -11.618214    5.929721   -1.276833
 C        -14.165005    6.396339   -1.422420
 C        -11.291836    7.260188   -1.621093
 H        -14.161932    7.279025   -0.774480
 H        -14.188880    6.755726   -2.457159
 H        -15.094817    5.851884   -1.238352
 C        -10.110583    7.960876   -1.807308
 H        -12.191880    7.843510   -1.770931
 C         -8.746573    7.399915   -1.697124
 C         -9.989368    9.372948   -2.163547
 O         -8.441013    6.248083   -1.406530
 C         -7.809987    8.504009   -2.013829
 C         -8.543428    9.674437   -2.290631
 C        -10.999968   10.308242   -2.349537
 C         -6.428390    8.496129   -2.055693
 C         -7.848536   10.842642   -2.616417
 C        -10.761373   11.672037   -2.697576
 C        -12.393400   10.034659   -2.212417
 C         -5.693074    9.654972   -2.384630
 C         -6.456218   10.810491   -2.660596
 H         -8.352923   11.770668   -2.844888
 N        -10.626466   12.794429   -2.981884
 N        -13.543741    9.869573   -2.113361
 C         -4.232351    9.666445   -2.428261
 H         -5.935350   11.721923   -2.936603
 C         -3.342539    8.612106   -2.508385
 S         -3.350555   11.190000   -2.393506
 C         -1.980601    9.017791   -2.553036
 H         -3.655677    7.578374   -2.550110
 C         -1.827319   10.377058   -2.498275
 H         -1.149667    8.324722   -2.623320
 H         -0.911235   10.952452   -2.507833
 F         -5.778536    7.354884   -1.769175
 F         -3.201813   -6.267410    0.361950
 F          3.725755   -6.093743   -0.371628
 F          5.651718    7.391880    2.762217
       182
S1: Total Energy = -10342.6839294
 C          9.607149   -6.408781   -1.252157
 C         10.995303   -6.341975   -1.540633
 C         11.497010   -5.051405   -1.340683
 C         10.543530   -4.114622   -0.903079
 C         11.119638   -2.838785   -0.734133
 C         12.488839   -2.809520   -1.033039
 C         12.951432   -1.508187   -0.775704
 C         14.261497   -0.928421   -0.782520
 C         14.435597    0.434033   -0.325997
 S          8.966445   -4.819961   -0.743187
 S         13.118374   -4.357735   -1.546131
 C         11.008636    6.538120    1.372048
 C         12.397232    6.249564    1.258747
 C         12.615162    4.910627    0.931098
 C         11.440578    4.145145    0.784899
 C         11.739644    2.805724    0.471139
 C         13.116675    2.557858    0.374751
 C         13.282034    1.208945    0.020905
 C         11.971630    0.643598   -0.056471
 C         11.818805   -0.747948   -0.351334
 S         10.010894    5.086135    1.064130
 S         14.099571    3.970797    0.676276
 C          8.895739   -7.627921   -1.360107
 C          7.577660   -8.009556   -1.171094
 C          6.458298   -7.104936   -0.823855
 O          6.521252   -5.899820   -0.601288
 C          5.235216   -7.939366   -0.803963
 C          3.930209   -7.572541   -0.551211
 C          2.875569   -8.516779   -0.570399
 C          3.256498   -9.851286   -0.860076
 C          4.565052  -10.241863   -1.115609
 C          5.583149   -9.277871   -1.092862
 C          7.036110   -9.359786   -1.315868
 C          7.727054  -10.542342   -1.591817
 C          7.093568  -11.812698   -1.718972
 N          6.624612  -12.874706   -1.835007
 C          9.137600  -10.634742   -1.765403
 N         10.287575  -10.770929   -1.913741
 H          9.558655   -8.427739   -1.665718
 H          4.762859  -11.281881   -1.333262
 C         10.561537    7.837380    1.689887
 C          9.318612    8.426529    1.878867
 C          8.013965    7.734925    1.797269
 O          7.816514    6.553427    1.530718
 C          6.979184    8.746311    2.104475
 C          5.600355    8.617046    2.172096
 C          4.802630    9.714306    2.489312
 C          5.416466   10.942987    2.736804
 C          6.807223   11.100148    2.673431
 C          7.593113    9.990529    2.354063
 C          9.067086    9.824455    2.208188
 C          9.983808   10.857187    2.359392
 C          9.623664   12.200410    2.682572
 N          9.393345   13.312656    2.944685
 C         11.395571   10.716337    2.205312
 N         12.554979   10.662109    2.090990
 H         11.402998    8.507601    1.813845
 H          7.235213   12.071642    2.874309
 N         11.039121    1.644820    0.192823
 N         10.711031   -1.589349   -0.305147
 N         15.393215   -1.531464   -1.124606
 N         15.696960    0.846839   -0.326620
 C          9.455326   -1.397034    0.421138
 H          9.179496   -2.343144    0.891320
 H          9.596055   -0.660457    1.212035
 H          8.643507   -1.083246   -0.240055
 C          9.617937    1.666445   -0.156188
 H          8.980122    1.472558    0.710021
 H          9.374912    2.652070   -0.558739
 H          9.419650    0.930551   -0.934986
 C         13.500968    7.250426    1.467106
 H         13.404799    8.108324    0.793373
 H         13.500571    7.642215    2.490310
 H         14.477181    6.793044    1.286300
 C         11.833563   -7.498327   -2.014836
 H         11.732780   -8.374502   -1.366761
 H         11.547151   -7.810060   -3.026124
 H         12.891482   -7.223125   -2.039896
 S         16.608841   -0.427217   -0.878097
 H          4.799640   11.800857    2.985891
 H          3.725541    9.596000    2.539664
 H          2.484600  -10.613576   -0.899270
 C          1.496133   -8.153283   -0.308217
 C          0.908978   -6.897623   -0.201712
 S          0.271339   -9.396380   -0.088702
 C         -0.475581   -6.927713    0.035182
 H          1.465892   -5.977928   -0.305218
 C         -1.009054   -8.209211    0.133903
 H         -1.071452   -6.033178    0.140370
 C         -2.369615   -8.634084    0.386063
 C         -3.460007   -7.731760    0.425568
 C         -2.702127   -9.998539    0.607632
 C         -4.747659   -8.159162    0.668911
 C         -3.988906  -10.452186    0.851473
 H         -1.902635  -10.732999    0.595928
 C         -5.994687   -7.375475    0.736719
 C         -5.048924   -9.527748    0.889040
 H         -4.146465  -11.509302    1.013132
 C         -7.081925   -8.342768    1.047007
 O         -6.114703   -6.164603    0.578549
 C         -6.483009   -9.682964    1.108549
 C         -8.400731   -8.019867    1.283838
 C         -7.142804  -10.904628    1.309286
 C         -9.155971   -6.809961    1.242643
 H         -9.032501   -8.852945    1.564478
 C         -6.465860  -12.154716    1.380865
 C         -8.551111  -11.052021    1.438839
 C        -10.537892   -6.804306    1.564339
 S         -8.574914   -5.195090    0.772979
 N         -5.952867  -13.201209    1.450070
 N         -9.701048  -11.230404    1.544692
 C        -11.087033   -5.525946    1.411518
 C        -11.321447   -8.004268    2.023251
 C        -10.175374   -4.544954    0.981368
 S        -12.731847   -4.903872    1.669386
 H        -11.218413   -8.851634    1.338071
 H        -10.988164   -8.344094    3.010860
 H        -12.385793   -7.764718    2.097548
 C        -10.795569   -3.289699    0.860780
 C        -12.171361   -3.319792    1.187528
 N        -10.440083   -2.021205    0.461263
 C        -12.683114   -2.043173    0.973388
 C        -11.578933   -1.216994    0.550291
 C         -9.201486   -1.760108   -0.275979
 C        -14.015137   -1.512473    1.033408
 C        -11.785350    0.162309    0.322482
 H         -8.397622   -1.425858    0.384119
 H         -8.892487   -2.683686   -0.769155
 H         -9.385489   -1.014656   -1.049324
 C        -14.248124   -0.143281    0.640754
 N        -15.113663   -2.170874    1.375332
 C        -13.129968    0.687869    0.299992
 N        -10.899649    1.212606    0.080329
 N        -15.521293    0.223532    0.685997
 S        -16.374974   -1.104258    1.203154
 C        -13.026924    2.038950   -0.015443
 C        -11.651638    2.347139   -0.141099
 C         -9.468661    1.280517    0.386707
 S        -14.071300    3.420364   -0.246176
 C        -11.417631    3.701614   -0.415189
 H         -9.250531    2.267735    0.799037
 H         -9.221449    0.540482    1.147277
 H         -8.853524    1.124313   -0.502559
 C        -12.627396    4.422508   -0.507063
 S        -10.033407    4.715248   -0.696962
 C        -12.473524    5.778317   -0.795370
 C        -11.099007    6.123825   -0.931638
 C        -13.618851    6.742093   -0.943030
 C        -10.714518    7.457995   -1.220577
 H        -13.556554    7.559850   -0.217104
 H        -13.638924    7.195429   -1.939952
 H        -14.574339    6.233595   -0.789987
 C         -9.503968    8.098469   -1.415481
 H        -11.585881    8.094884   -1.303856
 C         -8.166880    7.456067   -1.374667
 C         -9.308115    9.519154   -1.708959
 O         -7.926885    6.274948   -1.150499
 C         -7.180089    8.518873   -1.661482
 C         -7.854634    9.741798   -1.859658
 C        -10.273428   10.513855   -1.825386
 C         -5.802922    8.435083   -1.739902
 C         -7.099990   10.884354   -2.145280
 C         -9.968512   11.877401   -2.115495
 C        -11.675543   10.306929   -1.668231
 C         -5.009371    9.566672   -2.028597
 C         -5.713886   10.775743   -2.226450
 H         -7.555062   11.849952   -2.313781
 N         -9.776041   13.002991   -2.350399
 N        -12.830856   10.196757   -1.549856
 C         -3.553410    9.500828   -2.108885
 H         -5.148728   11.670216   -2.468818
 C         -2.723365    8.402224   -2.238954
 S         -2.588952   10.973627   -2.055463
 C         -1.343656    8.735362   -2.305942
 H         -3.092221    7.388189   -2.300812
 C         -1.115808   10.082887   -2.218756
 H         -0.553220    8.001298   -2.415235
 H         -0.170078   10.607927   -2.236164
 F         -5.215384    7.245436   -1.527981
 F         -3.246970   -6.420013    0.213602
 F          3.663741   -6.283376   -0.273197
 F          5.019066    7.431487    1.932899
