       190
S0: Total Energy = -9338.75825404
 C          9.357321   -6.225473   -1.904586
 C         10.732395   -6.112826   -2.245065
 C         11.238837   -4.853766   -1.915257
 C         10.301161   -3.980425   -1.329938
 C         10.877771   -2.727998   -1.038566
 C         12.232746   -2.653988   -1.389386
 C         12.704763   -1.385808   -1.007581
 C         13.989935   -0.769081   -0.991525
 C         14.164838    0.511127   -0.414464
 S          8.737068   -4.713512   -1.178007
 S         12.845841   -4.127401   -2.106340
 C         10.749323    6.358751    2.077180
 C         12.134345    6.110696    1.879411
 C         12.358609    4.817751    1.400923
 C         11.191888    4.048868    1.223343
 C         11.496020    2.754017    0.757113
 C         12.870133    2.546354    0.575392
 C         13.042820    1.246956    0.067058
 C         11.737362    0.665781   -0.012830
 C         11.585370   -0.685987   -0.454462
 S          9.761463    4.928965    1.655095
 S         13.843599    3.940830    0.985959
 C          8.644926   -7.420796   -2.140555
 C          7.337899   -7.835028   -1.932500
 C          6.248942   -7.020642   -1.356731
 O          6.304815   -5.858309   -0.962832
 C          5.037949   -7.873588   -1.337823
 C          3.778360   -7.538821   -0.881134
 C          2.750013   -8.502750   -0.942827
 C          3.067625   -9.776159   -1.464525
 C          4.344267  -10.106529   -1.917060
 C          5.356373   -9.140857   -1.859949
 C          6.787053   -9.153944   -2.248505
 C          7.433917  -10.249533   -2.807042
 C          6.787437  -11.494781   -3.070923
 N          6.310338  -12.531806   -3.307197
 C          8.808764  -10.275336   -3.187131
 N          9.924915  -10.353483   -3.516662
 H          9.291867   -8.166274   -2.586214
 H          3.606330   -6.550366   -0.468113
 H          4.515584  -11.100443   -2.306912
 C         10.295063    7.607086    2.554964
 C          9.051358    8.146298    2.846404
 C          7.749719    7.461469    2.699453
 O          7.546155    6.314616    2.308114
 C          6.705974    8.423343    3.115647
 C          5.331713    8.232978    3.147360
 C          4.530976    9.292890    3.580419
 C          5.119008   10.503086    3.966403
 C          6.505786   10.689275    3.932905
 C          7.313983    9.632189    3.500504
 C          8.788238    9.494252    3.348710
 C          9.699788   10.496662    3.650556
 C          9.326196   11.786757    4.136109
 N          9.083662   12.855455    4.533165
 C         11.115771   10.373577    3.520578
 N         12.278104   10.330562    3.435474
 H         11.130832    8.274938    2.723375
 H          4.906465    7.281887    2.841740
 H          6.916483   11.641007    4.240395
 N         10.799147    1.617568    0.389365
 N         10.479934   -1.537720   -0.457582
 N         15.184969   -1.215539   -1.415350
 N         15.465881    0.841101   -0.488799
 C          9.273109   -1.447418    0.364599
 H          9.033235   -2.443733    0.742277
 H          9.460316   -0.802570    1.223342
 H          8.417498   -1.070497   -0.201731
 C          9.368021    1.654617    0.087174
 H          8.759431    1.344747    0.940821
 H          9.095806    2.676597   -0.185469
 H          9.156073    1.014087   -0.769308
 C         13.231547    7.106067    2.142909
 H         13.134726    7.991383    1.504807
 H         13.223253    7.454532    3.181006
 H         14.211352    6.661834    1.948839
 C         11.551879   -7.203463   -2.879820
 H         11.587489   -8.100812   -2.252716
 H         11.142000   -7.504356   -3.849970
 H         12.580150   -6.869739   -3.041851
 H          4.488406   11.321307    4.301437
 H          3.451506    9.180956    3.619080
 H          2.290176  -10.531210   -1.535078
 C          1.403606   -8.174275   -0.479102
 C          0.855973   -6.923029   -0.269354
 S          0.224745   -9.415738   -0.104603
 C         -0.483600   -6.954634    0.180097
 H          1.397875   -6.001710   -0.449283
 C         -0.991463   -8.231057    0.329711
 H         -1.053352   -6.060178    0.404566
 C         -2.325428   -8.623484    0.779807
 C         -3.385489   -7.692826    0.758451
 C         -2.598960   -9.926952    1.249539
 C         -4.632169   -8.087710    1.202449
 H         -3.247197   -6.683498    0.385395
 C         -3.862943  -10.318086    1.689080
 H         -1.796181  -10.657339    1.289333
 C         -5.871117   -7.277360    1.257631
 C         -4.906772   -9.385246    1.672461
 H         -4.000263  -11.332329    2.037854
 C         -6.931682   -8.151960    1.796699
 O         -5.966447   -6.101736    0.913925
 C         -6.335265   -9.462017    2.062036
 C         -8.254229   -7.794044    2.012038
 C         -6.941690  -10.598324    2.583492
 C         -9.007065   -6.615151    1.825082
 H         -8.877521   -8.581961    2.416492
 C         -6.251606  -11.828890    2.801850
 C         -8.312639  -10.684165    2.968721
 C        -10.388438   -6.568180    2.155784
 S         -8.434365   -5.047279    1.182521
 N         -5.738125  -12.856414    3.000394
 N         -9.423696  -10.811635    3.300087
 C        -10.936228   -5.312559    1.884655
 C        -11.174133   -7.718133    2.725268
 C        -10.024548   -4.377608    1.355872
 S        -12.569614   -4.653628    2.095020
 H        -11.182262   -8.577930    2.046565
 H        -10.755292   -8.062652    3.676810
 H        -12.212206   -7.426209    2.904689
 C        -10.642072   -3.132242    1.124280
 C        -12.002026   -3.123958    1.463666
 N        -10.280768   -1.898789    0.613350
 C        -12.514534   -1.853773    1.146396
 C        -11.415323   -1.086727    0.644572
 C         -9.070147   -1.721354   -0.188935
 C        -13.819491   -1.279881    1.154305
 C        -11.610705    0.281046    0.275276
 H         -8.233080   -1.348368    0.407133
 H         -8.792513   -2.686065   -0.619226
 H         -9.271617   -1.035491   -1.011985
 C        -14.033945    0.023186    0.645568
 N        -15.003499   -1.794144    1.529500
 C        -12.934636    0.820791    0.212422
 N        -10.702301    1.284636   -0.064679
 N        -15.347918    0.299005    0.712646
 C        -12.802218    2.151337   -0.222876
 C        -11.434600    2.415118   -0.377887
 C         -9.277577    1.354775    0.260586
 S        -13.818803    3.533632   -0.564778
 C        -11.170607    3.744249   -0.766454
 H         -9.045714    2.368095    0.595757
 H         -9.053756    0.673360    1.081572
 H         -8.647219    1.116674   -0.600244
 C        -12.360974    4.482498   -0.911887
 S         -9.767585    4.695156   -1.133590
 C        -12.176613    5.809051   -1.309759
 C        -10.799676    6.114419   -1.477628
 C        -13.304718    6.781281   -1.525352
 C        -10.382768    7.407355   -1.863795
 H        -13.226883    7.646583   -0.858252
 H        -13.317150    7.165265   -2.551079
 H        -14.269187    6.302063   -1.337716
 C         -9.155926    8.004638   -2.106231
 H        -11.238520    8.058387   -1.993403
 C         -7.836172    7.345303   -2.027674
 C         -8.933079    9.397902   -2.498801
 O         -7.595153    6.178817   -1.726627
 C         -6.824158    8.363888   -2.390484
 C         -7.472751    9.581608   -2.668040
 C         -9.873974   10.403447   -2.684489
 C         -5.453073    8.206740   -2.449994
 C         -6.685655   10.682946   -3.025527
 C         -9.535923   11.734969   -3.073105
 C        -11.280959   10.243579   -2.511028
 C         -4.652054    9.308552   -2.816754
 H         -5.014921    7.246596   -2.198368
 C         -5.301766   10.530675   -3.098095
 H         -7.114401   11.648562   -3.255986
 N         -9.317411   12.835490   -3.389376
 N        -12.438163   10.171638   -2.383511
 C         -3.198210    9.172468   -2.900298
 H         -4.708937   11.389706   -3.398235
 C         -2.453306    8.014790   -2.995924
 S         -2.132908   10.569746   -2.885522
 C         -1.050628    8.240360   -3.061104
 H         -2.898694    7.027341   -3.042146
 C         -0.725159    9.569639   -3.012689
 H         -0.315765    7.447547   -3.146111
 H          0.256402   10.023563   -3.041255
 N        -15.860815   -0.815142    1.236681
 N         16.008323   -0.216562   -1.093859
 C        -17.275537   -0.922768    1.556567
 H        -17.558474   -1.973654    1.500478
 H        -17.465556   -0.541795    2.564512
 H        -17.836578   -0.335991    0.829420
 C         17.443043   -0.314432   -1.311513
 H         17.927975   -0.765193   -0.440376
 H         17.613232   -0.935758   -2.190501
 H         17.833825    0.690292   -1.471483
       190
T1: Total Energy = -9338.71384964
 C         -9.375011   -6.324280    1.530668
 C        -10.767512   -6.208021    1.787521
 C        -11.238771   -4.929209    1.480584
 C        -10.256338   -4.044536    0.995000
 C        -10.798586   -2.771721    0.726029
 C        -12.171434   -2.692895    0.996056
 C        -12.601951   -1.400032    0.648853
 C        -13.874929   -0.761315    0.587168
 C        -13.996179    0.549703    0.068352
 S         -8.694386   -4.792339    0.907499
 S        -12.846051   -4.188581    1.603704
 C        -10.353342    6.460749   -1.895805
 C        -11.751146    6.226547   -1.794321
 C        -12.021995    4.914060   -1.400766
 C        -10.879115    4.116394   -1.196394
 C        -11.229360    2.803992   -0.819985
 C        -12.614776    2.611084   -0.731823
 C        -12.836603    1.289770   -0.305701
 C        -11.546869    0.682289   -0.179170
 C        -11.441250   -0.692612    0.200554
 S         -9.412893    4.994209   -1.491921
 S        -13.541642    4.042463   -1.122618
 C         -8.688400   -7.534286    1.771788
 C         -7.374435   -7.954167    1.632745
 C         -6.249795   -7.139204    1.130565
 O         -6.274807   -5.968205    0.759647
 C         -5.048153   -8.004645    1.152497
 C         -3.765287   -7.673580    0.764534
 C         -2.747954   -8.647467    0.858526
 C         -3.103434   -9.927217    1.340528
 C         -4.403290  -10.253767    1.723514
 C         -5.403792   -9.277977    1.635106
 C         -6.850507   -9.283380    1.954371
 C         -7.532459  -10.378665    2.470958
 C         -6.909768  -11.632521    2.750443
 N         -6.452799  -12.676278    2.996839
 C         -8.922459  -10.394020    2.791340
 N        -10.052602  -10.463750    3.071551
 H         -9.368076   -8.286827    2.152139
 H         -3.566547   -6.678151    0.381673
 H         -4.601967  -11.253401    2.084873
 C         -9.853583    7.722507   -2.284151
 C         -8.587084    8.254936   -2.471535
 C         -7.305933    7.547985   -2.262815
 O         -7.141857    6.381840   -1.911968
 C         -6.225985    8.515855   -2.554383
 C         -4.854810    8.312114   -2.489653
 C         -4.015242    9.382183   -2.809479
 C         -4.562819   10.615454   -3.181659
 C         -5.946651   10.814965   -3.246365
 C         -6.793521    9.747731   -2.928005
 C         -8.276032    9.618813   -2.897276
 C         -9.154300   10.639680   -3.234204
 C         -8.735126   11.943256   -3.639899
 N         -8.455062   13.023525   -3.976344
 C        -10.576758   10.522592   -3.227542
 N        -11.742296   10.484586   -3.241682
 H        -10.668115    8.411174   -2.471465
 H         -4.461295    7.343372   -2.197223
 H         -6.325429   11.784640   -3.538430
 N        -10.572618    1.637280   -0.473478
 N        -10.349674   -1.561789    0.229136
 N        -15.099753   -1.207874    0.915120
 N        -15.294479    0.898101    0.082010
 C         -9.093430   -1.452920   -0.512946
 H         -8.844669   -2.434242   -0.922869
 H         -9.218196   -0.764653   -1.349176
 H         -8.268964   -1.118510    0.122109
 C         -9.160982    1.631721   -0.089386
 H         -8.509508    1.353882   -0.922119
 H         -8.888468    2.633099    0.250724
 H         -9.008649    0.945072    0.743609
 C        -12.816345    7.253938   -2.066436
 H        -12.751308    8.095364   -1.367590
 H        -12.735091    7.667354   -3.077095
 H        -13.812169    6.814407   -1.965525
 C        -11.638118   -7.314561    2.318329
 H        -11.674698   -8.164684    1.628158
 H        -11.272831   -7.694472    3.278163
 H        -12.662369   -6.962954    2.467578
 H         -3.902149   11.441552   -3.427560
 H         -2.936872    9.260407   -2.770015
 H         -2.338186  -10.692180    1.433521
 C         -1.378416   -8.323229    0.469178
 C         -0.827391   -7.075079    0.247544
 S         -0.165167   -9.564829    0.218701
 C          0.537567   -7.108591   -0.114283
 H         -1.385904   -6.152468    0.355208
 C          1.067168   -8.383891   -0.181809
 H          1.111523   -6.216057   -0.334708
 C          2.431202   -8.775704   -0.527277
 C          3.468622   -7.816642   -0.529382
 C          2.763025  -10.103404   -0.872144
 C          4.743990   -8.211225   -0.876714
 H          3.288246   -6.783700   -0.250780
 C          4.058976  -10.494165   -1.212538
 H          1.982907  -10.859043   -0.890811
 C          5.963832   -7.375426   -0.944638
 C          5.077750   -9.534619   -1.222596
 H          4.238812  -11.529312   -1.468515
 C          7.069408   -8.258164   -1.379421
 O          6.017818   -6.174814   -0.689183
 C          6.526665   -9.599597   -1.527091
 C          8.382109   -7.862049   -1.639312
 C          7.204977  -10.772836   -1.870823
 C          9.079111   -6.640310   -1.539348
 H          9.030109   -8.647714   -2.005380
 C          6.562472  -12.037979   -2.004487
 C          8.606113  -10.862839   -2.111481
 C         10.459808   -6.544219   -1.914083
 S          8.447433   -5.077990   -0.953939
 N          6.085836  -13.095584   -2.129646
 N          9.747304  -11.001705   -2.314531
 C         10.949905   -5.261547   -1.713758
 C         11.267337   -7.687551   -2.463008
 C         10.011611   -4.338022   -1.193577
 S         12.552687   -4.544126   -2.006446
 H         11.274041   -8.546809   -1.783738
 H         10.866632   -8.038402   -3.421218
 H         12.305214   -7.385171   -2.627697
 C         10.569855   -3.070704   -1.034993
 C         11.938940   -3.011881   -1.418580
 N         10.168474   -1.841116   -0.561896
 C         12.397982   -1.729864   -1.165626
 C         11.267915   -0.972297   -0.655139
 C          8.979353   -1.690511    0.278553
 C         13.674343   -1.092576   -1.255570
 C         11.405646    0.395679   -0.375099
 H          8.108315   -1.370539   -0.298901
 H          8.758811   -2.653099    0.744786
 H          9.181001   -0.972681    1.073964
 C         13.841387    0.244559   -0.833813
 N         14.864689   -1.570885   -1.649043
 C         12.720009    1.014802   -0.395574
 N         10.467319    1.378058   -0.021123
 N         15.133624    0.579643   -0.969597
 C         12.547820    2.331374    0.000425
 C         11.159148    2.545051    0.219448
 C          9.027832    1.376887   -0.288162
 S         13.512679    3.771373    0.252695
 C         10.857928    3.860049    0.573993
 H          8.738614    2.368713   -0.642180
 H          8.802104    0.661414   -1.078989
 H          8.446275    1.137660    0.605767
 C         12.021984    4.662564    0.639997
 S          9.426187    4.768524    0.989149
 C         11.801124    5.984499    1.001675
 C         10.410030    6.237158    1.231343
 C         12.883825    7.018550    1.141980
 C          9.955966    7.523348    1.590666
 H         12.699006    7.892089    0.507688
 H         12.962231    7.380695    2.173629
 H         13.855368    6.602914    0.861064
 C          8.707738    8.068569    1.884142
 H         10.781498    8.220964    1.646626
 C          7.425850    7.331106    1.941987
 C          8.430166    9.458323    2.223039
 O          7.234980    6.140938    1.703517
 C          6.387201    8.301170    2.355487
 C          6.982979    9.565695    2.523227
 C          9.320114   10.532801    2.255060
 C          5.040195    8.067137    2.547746
 C          6.165220   10.633613    2.908958
 C          8.935586   11.858448    2.613138
 C         10.704398   10.455265    1.925122
 C          4.208693    9.136120    2.946589
 H          4.639725    7.073787    2.373918
 C          4.804609   10.403883    3.117897
 H          6.552818   11.631641    3.061112
 N          8.676327   12.959082    2.899508
 N         11.841744   10.456939    1.663216
 C          2.780414    8.917782    3.173989
 H          4.190028   11.239216    3.440749
 C          2.125595    7.725822    3.407199
 S          1.627606   10.243999    3.176726
 C          0.722299    7.869774    3.590830
 H          2.638798    6.772734    3.470578
 C          0.305902    9.170651    3.495211
 H          0.052461    7.040999    3.791785
 H         -0.696959    9.565197    3.589717
 N         15.683795   -0.536916   -1.449686
 N        -15.887679   -0.179505    0.597701
 C         17.090157   -0.595510   -1.819405
 H         17.426954   -1.626294   -1.713067
 H         17.221052   -0.267220   -2.854660
 H         17.646643    0.060677   -1.150623
 C        -17.334168   -0.263416    0.723852
 H        -17.770559   -0.674669   -0.191392
 H        -17.566802   -0.913548    1.567047
 H        -17.720293    0.740865    0.897025
       190
S1: Total Energy = -9338.70147877
 C          9.451967   -6.499539   -0.756962
 C         10.849488   -6.360801   -0.966214
 C         11.256243   -5.029190   -0.834149
 C         10.220501   -4.128008   -0.526529
 C         10.700605   -2.807644   -0.421378
 C         12.083265   -2.706298   -0.637359
 C         12.446885   -1.362567   -0.451837
 C         13.689828   -0.663990   -0.421653
 C         13.735241    0.709556   -0.083629
 S          8.682584   -4.924087   -0.409193
 S         12.840108   -4.244193   -0.995201
 C          9.762515    6.646046    0.951669
 C         11.174081    6.468072    0.932456
 C         11.517555    5.132505    0.720081
 C         10.419332    4.261042    0.571433
 C         10.840157    2.932476    0.379008
 C         12.237016    2.793202    0.374406
 C         12.531253    1.441725    0.134303
 C         11.272111    0.762923    0.033188
 C         11.238080   -0.650162   -0.157801
 S          8.904333    5.096507    0.702569
 S         13.084182    4.304612    0.619911
 C          8.823236   -7.766392   -0.811107
 C          7.518344   -8.210840   -0.668642
 C          6.326929   -7.358333   -0.468270
 O          6.287291   -6.136620   -0.340280
 C          5.152660   -8.258318   -0.458794
 C          3.828154   -7.908958   -0.314721
 C          2.841146   -8.923393   -0.330545
 C          3.282054  -10.260784   -0.490944
 C          4.622767  -10.603477   -0.631405
 C          5.593760   -9.589182   -0.618995
 C          7.061322   -9.600945   -0.734740
 C          7.836000  -10.757145   -0.857320
 C          7.280084  -12.067932   -0.922283
 N          6.873851  -13.160091   -0.981885
 C          9.258945  -10.778706   -0.911782
 N         10.423086  -10.855864   -0.955941
 H          9.548963   -8.543952   -1.014735
 H          3.569884   -6.863630   -0.184144
 H          4.882863  -11.646290   -0.752025
 C          9.192069    7.920535    1.150772
 C          7.894223    8.406792    1.234084
 C          6.656938    7.605244    1.133878
 O          6.559511    6.395580    0.940092
 C          5.522054    8.537070    1.314376
 C          4.166087    8.243392    1.310726
 C          3.264861    9.293191    1.509067
 C          3.739529   10.595784    1.702528
 C          5.109124   10.886173    1.703774
 C          6.016646    9.839926    1.506426
 C          7.504091    9.797465    1.452502
 C          8.320246   10.913993    1.583718
 C          7.824303   12.236582    1.792135
 N          7.479186   13.336955    1.962624
 C          9.745701   10.890249    1.522053
 N         10.910557   10.932228    1.479942
 H          9.965939    8.669075    1.267666
 H          3.830676    7.221795    1.159855
 H          5.430372   11.906851    1.858837
 N         10.247461    1.702933    0.158029
 N         10.181988   -1.563684   -0.117391
 N         14.945591   -1.096038   -0.629184
 N         15.018272    1.109906   -0.086191
 C          8.885185   -1.412182    0.542963
 H          8.660475   -2.333114    1.085504
 H          8.934128   -0.601468    1.269848
 H          8.080528   -1.220337   -0.171994
 C          8.862483    1.588641   -0.300438
 H          8.169283    1.414878    0.526918
 H          8.583642    2.517185   -0.803646
 H          8.781301    0.779401   -1.026096
 C         12.180146    7.570735    1.121214
 H         12.051351    8.369657    0.383462
 H         12.092933    8.029891    2.112203
 H         13.198552    7.186100    1.021168
 C         11.785600   -7.490278   -1.302011
 H         11.692473   -8.326255   -0.601779
 H         11.588507   -7.885926   -2.305387
 H         12.824598   -7.150269   -1.277847
 H          3.032430   11.405220    1.858774
 H          2.195991    9.101128    1.512859
 H          2.549347  -11.062352   -0.513488
 C          1.436409   -8.588943   -0.187921
 C          0.854784   -7.328455   -0.132519
 S          0.190504   -9.820594   -0.058565
 C         -0.542537   -7.346822    0.006717
 H          1.425073   -6.409412   -0.198342
 C         -1.090254   -8.623134    0.066283
 H         -1.137468   -6.443336    0.068369
 C         -2.482587   -8.995497    0.209495
 C         -3.499605   -8.009816    0.209568
 C         -2.887021  -10.348636    0.355690
 C         -4.812413   -8.398430    0.354802
 H         -3.271635   -6.955955    0.090899
 C         -4.213835  -10.732662    0.497106
 H         -2.130970  -11.128623    0.364537
 C         -6.009717   -7.535956    0.378753
 C         -5.218175   -9.746467    0.501146
 H         -4.443658  -11.783879    0.606118
 C         -7.177635   -8.429404    0.581561
 O         -6.017632   -6.313084    0.260734
 C         -6.674653   -9.809271    0.620401
 C         -8.486847   -8.026575    0.755106
 C         -7.424669  -10.989057    0.722941
 C         -9.152067   -6.767758    0.733236
 H         -9.188484   -8.825353    0.958828
 C         -6.834854  -12.284045    0.773067
 C         -8.845433  -11.046410    0.761261
 C        -10.546929   -6.674690    0.979413
 S         -8.431296   -5.175329    0.389388
 N         -6.395573  -13.364633    0.820367
 N        -10.008778  -11.150831    0.789780
 C        -10.992133   -5.352255    0.877150
 C        -11.440067   -7.835623    1.324252
 C         -9.989830   -4.418289    0.555972
 S        -12.596590   -4.622485    1.095075
 H        -11.335575   -8.662961    0.615420
 H        -11.210808   -8.232348    2.320417
 H        -12.489649   -7.528521    1.323924
 C        -10.507509   -3.113495    0.486609
 C        -11.896340   -3.057108    0.743057
 N        -10.034572   -1.854534    0.191453
 C        -12.302990   -1.733862    0.590206
 C        -11.116715   -0.968439    0.276600
 C         -8.756691   -1.652347   -0.494249
 C        -13.568462   -1.074365    0.623445
 C        -11.200143    0.433762    0.130816
 H         -7.948885   -1.424810    0.205621
 H         -8.506051   -2.566150   -1.036785
 H         -8.854320   -0.848496   -1.223820
 C        -13.667920    0.303342    0.329413
 N        -14.801782   -1.555701    0.847319
 C        -12.494748    1.079451    0.089483
 N        -10.215002    1.418372   -0.008301
 N        -14.961602    0.660048    0.373364
 C        -12.258175    2.433141   -0.132147
 C        -10.857889    2.625349   -0.180828
 C         -8.804261    1.343394    0.376683
 S        -13.167709    3.916859   -0.312378
 C        -10.496610    3.970013   -0.351035
 H         -8.527552    2.280167    0.864837
 H         -8.662965    0.538387    1.097804
 H         -8.152417    1.189496   -0.486833
 C        -11.633340    4.800777   -0.442168
 S         -9.018985    4.875324   -0.503882
 C        -11.351221    6.153996   -0.629470
 C         -9.948440    6.386231   -0.685774
 C        -12.402858    7.222105   -0.756437
 C         -9.437761    7.695121   -0.872495
 H        -12.304618    7.982624    0.025613
 H        -12.339103    7.739823   -1.719582
 H        -13.404088    6.790506   -0.676407
 C         -8.167561    8.234753   -0.977418
 H        -10.246071    8.411058   -0.950398
 C         -6.891857    7.483878   -0.913033
 C         -7.837146    9.648378   -1.179200
 O         -6.745036    6.275885   -0.748517
 C         -5.803395    8.469356   -1.087981
 C         -6.364481    9.752770   -1.241889
 C         -8.709871   10.726171   -1.295838
 C         -4.443167    8.231242   -1.097225
 C         -5.493388   10.836262   -1.414748
 C         -8.273904   12.070506   -1.493096
 C        -10.131399   10.633695   -1.235461
 C         -3.558167    9.315631   -1.280483
 H         -4.078177    7.220299   -0.949381
 C         -4.119658   10.603344   -1.435201
 H         -5.850612   11.849009   -1.541381
 N         -7.972274   13.185184   -1.654608
 N        -11.297368   10.619210   -1.194654
 C         -2.113570    9.098354   -1.311637
 H         -3.461926   11.453209   -1.592028
 C         -1.431495    7.911227   -1.491323
 S         -0.971474   10.419484   -1.112131
 C         -0.017466    8.055127   -1.473876
 H         -1.928868    6.962057   -1.655757
 C          0.381029    9.351471   -1.279068
 H          0.674137    7.230971   -1.608898
 H          1.387482    9.744263   -1.223215
 N        -15.576537   -0.483524    0.678550
 N         15.677283   -0.000464   -0.421198
 C        -17.013982   -0.539598    0.900670
 H        -17.358554   -1.541713    0.647059
 H        -17.240778   -0.323280    1.948688
 H        -17.487495    0.202956    0.258977
 C         17.130488   -0.036671   -0.468889
 H         17.534790   -0.297339    0.513862
 H         17.429935   -0.786404   -1.200985
 H         17.486887    0.950090   -0.763848
