       210
S0: Total Energy = -11689.7634823
 C          4.054917   -6.780623   -0.552225
 C          3.784241   -5.496648   -0.956408
 S          2.556584   -7.660013   -0.303413
 C          2.397928   -5.189727   -1.071594
 H          4.541552   -4.761430   -1.191041
 C          1.588372   -6.276138   -0.755229
 C          2.043960   -3.814859   -1.495870
 C          0.162934   -6.356442   -0.793085
 N          0.727853   -3.309851   -1.510933
 O          2.959029   -3.054981   -1.802945
 C         -0.747260   -5.360246   -1.132600
 S         -0.664634   -7.848414   -0.411581
 C         -0.530697   -3.943969   -1.510392
 C          0.653246   -1.856877   -1.784821
 C         -2.094568   -5.821233   -1.089101
 C         -2.238315   -7.135727   -0.719779
 O         -1.515529   -3.271031   -1.805165
 H         -0.252153   -1.467797   -1.326659
 H          1.539702   -1.384628   -1.370939
 H          0.616688   -1.668100   -2.861896
 H         -2.917864   -5.169985   -1.348419
 C          5.358155   -7.406916   -0.333782
 C          6.518284   -6.613019   -0.222161
 C          5.498805   -8.807420   -0.231824
 C          7.735691   -7.235417   -0.026985
 H          6.474612   -5.530234   -0.272702
 C          6.731827   -9.425623   -0.026935
 H          4.622116   -9.441197   -0.329043
 C          9.064991   -6.596609    0.115998
 C          7.879304   -8.631140    0.076682
 H          6.766993  -10.504141    0.040414
 C         10.043797   -7.684137    0.315284
 O          9.279571   -5.388185    0.073537
 C          9.312950   -8.951672    0.285477
 C         11.408883   -7.528746    0.504155
 C          9.812029  -10.241317    0.414515
 C         12.284851   -6.423092    0.550895
 H         11.955518   -8.452268    0.649516
 C          8.993448  -11.410315    0.370871
 C         11.189347  -10.564362    0.600058
 C         13.678259   -6.601584    0.765182
 S         11.868657   -4.695652    0.348780
 N          8.372546  -12.396430    0.344029
 N         12.300192  -10.885686    0.751617
 C         14.355144   -5.379705    0.764665
 C         14.352110   -7.930343    0.975412
 C         13.532907   -4.255514    0.553888
 S         16.069509   -4.966986    0.962469
 H         13.997921   -8.419782    1.889521
 H         14.162236   -8.619533    0.146091
 H         15.434526   -7.805554    1.063631
 C         14.287548   -3.064792    0.548150
 C         15.655668   -3.282151    0.757244
 N         14.047416   -1.707119    0.424727
 C         16.287940   -2.026801    0.773192
 C         15.271030   -1.055000    0.530606
 C         12.703790   -1.145613    0.569202
 C         17.631795   -1.626324    1.064382
 C         15.625663    0.331250    0.441432
 H         12.107846   -1.826041    1.181094
 H         12.758034   -0.190693    1.090952
 H         12.208827   -1.014795   -0.396660
 C         17.949181   -0.216426    1.137727
 N         18.656057   -2.425313    1.336834
 C         16.940388    0.746029    0.810313
 N         14.903943    1.448136    0.034232
 N         19.210209    0.036699    1.465651
 S         19.948781   -1.436802    1.668009
 C         16.975707    2.144100    0.666196
 C         15.724796    2.551966    0.185940
 C         13.686721    1.495881   -0.776526
 S         18.108794    3.459634    0.861423
 C         15.648905    3.941577   -0.044871
 H         12.798226    1.690014   -0.170008
 H         13.791807    2.295612   -1.512616
 H         13.569246    0.558165   -1.318966
 C         16.862367    4.578680    0.276144
 S         14.450277    5.065510   -0.598226
 C         16.857575    5.964017    0.088537
 C         15.602876    6.416974   -0.397406
 C         18.043208    6.848508    0.364843
 C         15.374739    7.787304   -0.657136
 H         18.404997    7.332988   -0.548924
 H         17.801153    7.643866    1.077288
 H         18.870067    6.267981    0.782363
 C         14.298500    8.524561   -1.122644
 H         16.261497    8.367399   -0.433443
 C         12.982056    7.984509   -1.525309
 C         14.261153    9.974201   -1.320298
 O         12.612784    6.813173   -1.495134
 C         12.167720    9.129855   -1.985184
 C         12.920949   10.312751   -1.870855
 C         15.251945   10.907096   -1.049789
 C         10.866079    9.114408   -2.466504
 C         12.340816   11.525447   -2.259092
 C         15.104470   12.308691   -1.281842
 C         16.532638   10.595940   -0.501574
 C         10.293302   10.329108   -2.851399
 H         10.322144    8.177381   -2.536306
 C         11.029052   11.515464   -2.746517
 H         12.871716   12.465220   -2.196040
 N         15.044002   13.460471   -1.449561
 N         17.591704   10.400465   -0.054278
 H          9.277097   10.356387   -3.233215
 H         10.575467   12.454506   -3.049535
 C         -3.471932   -7.908192   -0.578534
 C         -4.716082   -7.249988   -0.493004
 C         -3.460630   -9.318459   -0.527744
 C         -5.864458   -8.008138   -0.373424
 H         -4.789189   -6.167638   -0.505131
 C         -4.625203  -10.074376   -0.398344
 H         -2.515964   -9.848712   -0.606789
 C         -7.261028   -7.524226   -0.268601
 C         -5.856803   -9.414117   -0.321836
 H         -4.543845  -11.152045   -0.367439
 C         -8.121186   -8.719143   -0.153979
 O         -7.606339   -6.345752   -0.276842
 C         -7.253179   -9.897089   -0.186290
 C         -9.502827   -8.721352   -0.036369
 C         -7.610256  -11.237080   -0.111551
 C        -10.497416   -7.720366    0.001722
 H         -9.950381   -9.704149    0.045541
 C         -6.666470  -12.307479   -0.158251
 C         -8.948295  -11.714976    0.018912
 S        -10.265330   -5.950592   -0.106603
 C        -11.871391   -8.058619    0.131255
 N         -5.939907  -13.218328   -0.191388
 N        -10.020404  -12.161344    0.126092
 C        -11.977542   -5.704479    0.006859
 C        -12.679675   -6.919203    0.130789
 C        -12.402945   -9.461081    0.251291
 C        -12.856479   -4.602360    0.026229
 S        -14.435599   -6.703071    0.268915
 H        -12.141303  -10.069456   -0.621161
 H        -12.000782   -9.971456    1.133016
 H        -13.492555   -9.455883    0.337996
 N        -12.766221   -3.226039   -0.088019
 C        -14.200551   -4.975484    0.156023
 C        -14.056626   -2.714242   -0.007058
 C        -11.559796   -2.571593   -0.595366
 C        -14.973128   -3.801976    0.113480
 C        -14.554778   -1.370050   -0.031836
 H        -10.910781   -2.225881    0.213219
 H        -11.008303   -3.288967   -1.206402
 H        -11.836440   -1.733547   -1.234837
 C        -16.387232   -3.578519    0.074893
 N        -13.909711   -0.140501    0.048385
 C        -15.958398   -1.142708   -0.155447
 C        -16.885399   -2.233814   -0.117686
 N        -17.338251   -4.501605    0.146730
 C        -14.875013    0.844256   -0.070029
 C        -12.569226    0.150146    0.558320
 C        -16.137168    0.250823   -0.201353
 N        -18.208277   -2.153405   -0.190430
 S        -18.783826   -3.701977   -0.022250
 C        -14.927336    2.253556   -0.056454
 H        -12.620442    1.052260    1.171415
 H        -12.232841   -0.666544    1.196573
 H        -11.850299    0.313479   -0.248618
 S        -17.441259    1.407215   -0.321833
 S        -13.791064    3.558040    0.057038
 C        -16.250945    2.715940   -0.186616
 C        -15.119998    4.747366   -0.069367
 C        -16.381301    4.107273   -0.197896
 C        -15.016064    6.155909   -0.059233
 C        -17.700252    4.820948   -0.320465
 C        -13.967338    7.055318    0.049472
 H        -15.994531    6.608868   -0.160402
 H        -17.931693    5.394172    0.584356
 H        -17.707749    5.524415   -1.159265
 H        -18.512748    4.106728   -0.477748
 C        -12.540569    6.711858    0.217364
 C        -14.072876    8.515722    0.028613
 C        -11.799032    7.990545    0.311296
 O        -12.036765    5.593202    0.273978
 C        -12.703672    9.060696    0.198894
 C        -15.209427    9.297872   -0.127500
 C        -10.437579    8.167394    0.474370
 C        -12.199604   10.366303    0.262007
 C        -15.188424   10.725660   -0.136061
 C        -16.529908    8.786421   -0.303612
 C         -9.922881    9.476765    0.538512
 H         -9.792047    7.295681    0.532704
 C        -10.830051   10.555152    0.435033
 H        -12.838285   11.235910    0.191333
 N        -15.230183   11.890382   -0.150454
 N        -17.628875    8.425080   -0.451296
 C         -8.492907    9.733847    0.705724
 H        -10.455588   11.570674    0.508067
 C         -7.790539   10.879788    0.430614
 S         -7.411143    8.501727    1.332936
 C         -6.392871   10.798878    0.702549
 H         -8.228835   11.776277    0.013998
 C         -6.022472    9.554249    1.198585
 C         -5.573265   11.992811    0.389332
 C         -4.720680    9.108764    1.591504
 N         -4.189680   12.088540    0.631947
 O         -6.137643   12.960709   -0.116327
 C         -3.551922    9.854906    1.680926
 S         -4.439460    7.454979    2.092788
 C         -3.297489   11.278858    1.368228
 C         -3.609976   13.378334    0.194512
 C         -2.448437    9.080143    2.166785
 C         -2.769415    7.782572    2.423257
 O         -2.216790   11.758700    1.700222
 H         -2.535463   13.254876    0.096999
 H         -4.063738   13.655622   -0.753929
 H         -3.817198   14.163115    0.928206
 H         -1.463438    9.505380    2.303000
 H         -2.128198    6.989671    2.783655
       210
T1: Total Energy = -11689.7186590
 C         -4.047116   -6.772190    0.548147
 C         -3.776964   -5.485534    0.943934
 S         -2.547770   -7.651498    0.301897
 C         -2.390845   -5.175988    1.054501
 H         -4.534636   -4.749697    1.175549
 C         -1.580103   -6.263505    0.743325
 C         -2.037707   -3.798614    1.469222
 C         -0.155171   -6.342162    0.778302
 N         -0.721720   -3.292405    1.478722
 O         -2.952764   -3.037165    1.773322
 C          0.755343   -5.343321    1.109946
 S          0.673800   -7.835975    0.404224
 C          0.537667   -3.925122    1.479405
 C         -0.647555   -1.837753    1.743152
 C          2.102677   -5.803224    1.067384
 C          2.248001   -7.120476    0.706333
 O          1.522022   -3.248527    1.767966
 H          0.254509   -1.450117    1.277148
 H         -1.537204   -1.369366    1.331822
 H         -0.604535   -1.642104    2.818787
 H          2.925707   -5.149681    1.321497
 C         -5.349797   -7.401154    0.336198
 C         -6.511915   -6.609699    0.226337
 C         -5.488686   -8.802309    0.238584
 C         -7.728897   -7.234670    0.037337
 H         -6.469969   -5.526691    0.273554
 C         -6.721323   -9.423166    0.039995
 H         -4.610565   -9.434356    0.334165
 C         -9.059616   -6.598468   -0.102932
 C         -7.870701   -8.631041   -0.061716
 H         -6.754835  -10.501945   -0.024183
 C        -10.037436   -7.688236   -0.295591
 O         -9.276285   -5.390309   -0.063267
 C         -9.304188   -8.954592   -0.264462
 C        -11.403216   -7.535653   -0.480161
 C         -9.801896  -10.245380   -0.388032
 C        -12.281154   -6.431319   -0.528004
 H        -11.948992   -8.460479   -0.620321
 C         -8.981513  -11.413054   -0.343294
 C        -11.179257  -10.571016   -0.568440
 C        -13.674771   -6.612609   -0.737430
 S        -11.866768   -4.702595   -0.333964
 N         -8.359204  -12.398258   -0.315235
 N        -12.290059  -10.894521   -0.715749
 C        -14.353397   -5.391541   -0.740049
 C        -14.347476   -7.943135   -0.940219
 C        -13.532176   -4.265492   -0.536172
 S        -16.068795   -4.981906   -0.935296
 H        -13.995287   -8.435991   -1.853259
 H        -14.154358   -8.628592   -0.108550
 H        -15.430310   -7.820100   -1.025854
 C        -14.288406   -3.075656   -0.533461
 C        -15.656695   -3.295620   -0.738338
 N        -14.049596   -1.717182   -0.416773
 C        -16.290502   -2.041053   -0.758766
 C        -15.274227   -1.066974   -0.522996
 C        -12.706985   -1.154676   -0.566779
 C        -17.635371   -1.643428   -1.049191
 C        -15.630204    0.319292   -0.439912
 H        -12.111009   -1.838113   -1.175261
 H        -12.763412   -0.203064   -1.094390
 H        -12.210681   -1.017160    0.397451
 C        -17.954413   -0.234220   -1.129031
 N        -18.659340   -2.444838   -1.315596
 C        -16.946016    0.730914   -0.808385
 N        -14.908821    1.438813   -0.039534
 N        -19.216350    0.015925   -1.455764
 S        -19.953746   -1.459374   -1.649256
 C        -16.982396    2.129657   -0.671160
 C        -15.731010    2.541157   -0.195215
 C        -13.690534    1.491266    0.769342
 S        -18.117072    3.443080   -0.871146
 C        -15.656054    3.931980    0.028340
 H        -12.802952    1.682867    0.160701
 H        -13.795083    2.294519    1.501668
 H        -13.571835    0.556236    1.316157
 C        -16.870718    4.566305   -0.293802
 S        -14.457603    5.059925    0.573903
 C        -16.866985    5.952539   -0.113273
 C        -15.611891    6.409247    0.368215
 C        -18.053818    6.834546   -0.392360
 C        -15.384690    7.781081    0.620424
 H        -18.412674    7.326127    0.518739
 H        -17.814230    7.624358   -1.111810
 H        -18.881944    6.250649   -0.802609
 C        -14.308355    8.521886    1.080179
 H        -16.272370    8.359148    0.395145
 C        -12.990572    7.985322    1.483068
 C        -14.272098    9.972562    1.269956
 O        -12.620284    6.814165    1.458837
 C        -12.176262    9.134017    1.934602
 C        -12.930859   10.315539    1.815266
 C        -15.264717   10.902930    0.997297
 C        -10.873519    9.122502    2.413024
 C        -12.350949   11.530964    2.195196
 C        -15.118049   12.305938    1.221135
 C        -16.546823   10.587426    0.454919
 C        -10.300973   10.339910    2.789637
 H        -10.328565    8.186380    2.486945
 C        -11.038045   11.524974    2.679628
 H        -12.882846   12.469882    2.127953
 N        -15.058344   13.458706    1.382235
 N        -17.607161   10.388445    0.012191
 H         -9.283919   10.370295    3.168954
 H        -10.584617   12.466154    2.976184
 C          3.481236   -7.892179    0.568157
 C          4.727297   -7.233569    0.483623
 C          3.472881   -9.301657    0.519838
 C          5.874597   -7.991530    0.367474
 H          4.799979   -6.151115    0.494286
 C          4.638833  -10.058267    0.394249
 H          2.528645   -9.833167    0.597972
 C          7.271510   -7.512039    0.264209
 C          5.870435   -9.398586    0.318585
 H          4.557945  -11.136058    0.365882
 C          8.133674   -8.710597    0.155994
 O          7.621556   -6.334902    0.268876
 C          7.267151   -9.878997    0.187572
 C          9.524117   -8.712543    0.045228
 C          7.628230  -11.226510    0.113642
 C         10.510150   -7.705233    0.010339
 H          9.973217   -9.694278   -0.029592
 C          6.684637  -12.294238    0.157004
 C          8.963454  -11.707245   -0.012411
 S         10.263490   -5.941391    0.108319
 C         11.899545   -8.038790   -0.111658
 N          5.955444  -13.204328    0.187606
 N         10.032972  -12.163063   -0.115960
 C         11.986997   -5.679663    0.001922
 C         12.693719   -6.901453   -0.112367
 C         12.424355   -9.443231   -0.223774
 C         12.849788   -4.584960   -0.018156
 S         14.456567   -6.685527   -0.241113
 H         12.156333  -10.047144    0.650277
 H         12.021943   -9.956157   -1.104358
 H         13.514547   -9.444678   -0.307079
 N         12.753270   -3.213797    0.086095
 C         14.218038   -4.956296   -0.136572
 C         14.050100   -2.689339    0.011448
 C         11.546541   -2.561818    0.597667
 C         14.977338   -3.799230   -0.092904
 C         14.537222   -1.372260   -0.001243
 H         10.901207   -2.206890   -0.209590
 H         10.992249   -3.284018    1.200347
 H         11.824311   -1.730528    1.245835
 C         16.395571   -3.573876   -0.073620
 N         13.893609   -0.130252   -0.069876
 C         15.963857   -1.133655    0.098609
 C         16.893953   -2.227421    0.073274
 N         17.342788   -4.498177   -0.133052
 C         14.859940    0.848001    0.034794
 C         12.551140    0.161111   -0.576048
 C         16.140302    0.239230    0.146089
 N         18.215011   -2.142185    0.127412
 S         18.793398   -3.695570   -0.005145
 C         14.918149    2.241439    0.022567
 H         12.598740    1.069107   -1.180634
 H         12.217367   -0.651285   -1.221517
 H         11.833413    0.313650    0.233847
 S         17.447825    1.395071    0.252330
 S         13.781729    3.563035   -0.075551
 C         16.250660    2.707042    0.135180
 C         15.117732    4.739834    0.033151
 C         16.388923    4.087662    0.143992
 C         15.024011    6.147053    0.027647
 C         17.703885    4.808652    0.252251
 C         13.968433    7.052000   -0.064450
 H         16.003873    6.598124    0.114741
 H         17.900529    5.423344   -0.633425
 H         17.731084    5.476633    1.119955
 H         18.528558    4.097846    0.353038
 C         12.536931    6.707673   -0.216385
 C         14.070466    8.505088   -0.042936
 C         11.792199    7.983824   -0.301138
 O         12.036646    5.587120   -0.267820
 C         12.700673    9.052546   -0.197060
 C         15.215396    9.288954    0.102341
 C         10.430047    8.160669   -0.449119
 C         12.196165   10.357760   -0.252376
 C         15.194605   10.714940    0.108035
 C         16.536238    8.779894    0.268877
 C          9.914197    9.471410   -0.506357
 H          9.783437    7.289331   -0.501732
 C         10.823759   10.547410   -0.410471
 H         12.835881   11.227041   -0.187005
 N         15.235544   11.880511    0.119047
 N         17.638994    8.424991    0.409741
 C          8.483418    9.729305   -0.659673
 H         10.449901   11.563686   -0.477551
 C          7.783803   10.877498   -0.385019
 S          7.394149    8.494351   -1.269362
 C          6.383781   10.796084   -0.643454
 H          8.226608   11.776266    0.021758
 C          6.007091    9.548724   -1.127997
 C          5.567889   11.992561   -0.330532
 C          4.701405    9.101743   -1.504701
 N          4.181794   12.087421   -0.559429
 O          6.137463   12.964015    0.162486
 C          3.531701    9.847536   -1.586668
 S          4.414545    7.444823   -1.993203
 C          3.280907   11.273093   -1.280124
 C          3.608059   13.380590   -0.124256
 C          2.423073    9.069932   -2.056460
 C          2.740904    7.770825   -2.308372
 O          2.196465   11.751215   -1.602880
 H          2.533889   13.260269   -0.019749
 H          4.068244   13.661073    0.820205
 H          3.813056   14.161650   -0.862540
 H          1.436807    9.494655   -2.184952
 H          2.095781    6.975930   -2.657208
       210
S1: Total Energy = -11689.7055837
 C         -4.070255   -6.660437    0.075649
 C         -3.777830   -5.316668    0.129277
 S         -2.581643   -7.590104   -0.033915
 C         -2.393096   -5.003542    0.076388
 H         -4.521489   -4.535755    0.208115
 C         -1.593162   -6.144847   -0.006836
 C         -2.021531   -3.571931    0.114069
 C         -0.175861   -6.226564   -0.035957
 N         -0.714019   -3.093023   -0.117388
 O         -2.913889   -2.747071    0.298215
 C          0.752525   -5.182800   -0.035599
 S          0.639861   -7.776728   -0.047563
 C          0.548589   -3.715078   -0.052611
 C         -0.636423   -1.620861   -0.248516
 C          2.091348   -5.649073   -0.043457
 C          2.229622   -7.021972   -0.056161
 O          1.544810   -2.994891   -0.040071
 H          0.215153   -1.376948   -0.878276
 H         -1.565369   -1.266963   -0.686572
 H         -0.500640   -1.151308    0.730465
 H          2.921204   -4.956344   -0.048594
 C         -5.377233   -7.305083    0.095189
 C         -6.558719   -6.531233    0.074065
 C         -5.511375   -8.711871    0.135559
 C         -7.779292   -7.173729    0.096913
 H         -6.530958   -5.447648    0.035214
 C         -6.748807   -9.351031    0.154072
 H         -4.620998   -9.333679    0.158871
 C         -9.125248   -6.556155    0.083420
 C         -7.915481   -8.575345    0.135185
 H         -6.774536  -10.431544    0.185911
 C        -10.104457   -7.662002    0.123100
 O         -9.353398   -5.349757    0.048700
 C         -9.353850   -8.919479    0.144806
 C        -11.483565   -7.528786    0.148556
 C         -9.848321  -10.220048    0.162086
 C        -12.376436   -6.433416    0.132163
 H        -12.029822   -8.462765    0.194210
 C         -9.013919  -11.377489    0.182488
 C        -11.232272  -10.563375    0.155396
 C        -13.781610   -6.633894    0.176581
 S        -11.964169   -4.695560    0.054074
 N         -8.378572  -12.355010    0.199819
 N        -12.348704  -10.902064    0.149709
 C        -14.472029   -5.419100    0.138890
 C        -14.455783   -7.976745    0.258175
 C        -13.647662   -4.280084    0.069836
 S        -16.203208   -5.029964    0.176535
 H        -14.181194   -8.622168   -0.582801
 H        -14.182267   -8.509206    1.175754
 H        -15.543205   -7.864701    0.250591
 C        -14.412452   -3.095753    0.052473
 C        -15.792570   -3.333131    0.098700
 N        -14.178506   -1.734930   -0.036767
 C        -16.440352   -2.087864    0.027096
 C        -15.414180   -1.096408   -0.023784
 C        -12.886087   -1.200983   -0.467908
 C        -17.820202   -1.721840   -0.089365
 C        -15.772193    0.290476   -0.053795
 H        -12.379179   -1.961768   -1.065125
 H        -13.041599   -0.328480   -1.102051
 H        -12.248532   -0.936605    0.379615
 C        -18.168893   -0.331269   -0.287280
 N        -18.861743   -2.544578   -0.088020
 C        -17.136705    0.661013   -0.252843
 N        -15.012659    1.447157    0.086342
 N        -19.470453   -0.116606   -0.434291
 S        -20.207462   -1.600943   -0.325912
 C        -17.171279    2.065686   -0.282229
 C        -15.865517    2.526083   -0.067479
 C        -13.681911    1.594080    0.677090
 S        -18.342295    3.351120   -0.453384
 C        -15.776113    3.932434   -0.026026
 H        -12.904764    1.699111   -0.084408
 H        -13.679846    2.485895    1.307269
 H        -13.464949    0.736579    1.313530
 C        -17.036190    4.529854   -0.220810
 S        -14.521547    5.111400    0.180199
 C        -17.024206    5.927161   -0.204683
 C        -15.714431    6.432306    0.011399
 C        -18.252048    6.775927   -0.395328
 C        -15.472185    7.822750    0.074717
 H        -18.422436    7.441852    0.457167
 H        -18.170570    7.407529   -1.286786
 H        -19.140937    6.150260   -0.511168
 C        -14.346540    8.608116    0.264776
 H        -16.394369    8.374244   -0.060487
 C        -12.965267    8.117133    0.458274
 C        -14.306016   10.070066    0.304216
 O        -12.583459    6.949827    0.490043
 C        -12.100683    9.307327    0.608442
 C        -12.888494   10.469508    0.517496
 C        -15.358181   10.966145    0.177302
 C        -10.727983    9.346732    0.808890
 C        -12.268641   11.718624    0.632876
 C        -15.200886   12.384629    0.232314
 C        -16.722193   10.595202   -0.020675
 C        -10.116113   10.597519    0.923053
 H        -10.160006    8.423644    0.872930
 C        -10.884524   11.764287    0.834814
 H        -12.822202   12.645295    0.570944
 N        -15.135767   13.547804    0.268086
 N        -17.851033   10.351247   -0.182684
 H         -9.043954   10.668061    1.080269
 H        -10.399772   12.731935    0.924489
 C          3.450595   -7.805943   -0.074018
 C          4.715841   -7.173586   -0.029372
 C          3.427731   -9.221911   -0.136806
 C          5.853287   -7.950137   -0.051375
 H          4.811770   -6.094440    0.024298
 C          4.580090   -9.998092   -0.154045
 H          2.471907   -9.737007   -0.176872
 C          7.256971   -7.494201   -0.017027
 C          5.834328   -9.363315   -0.111310
 H          4.483260  -11.073992   -0.203700
 C          8.105790   -8.710565   -0.079952
 O          7.631734   -6.326381    0.045656
 C          7.208260   -9.872132   -0.110401
 C          9.485891   -8.734620   -0.137989
 C          7.562320  -11.227381   -0.118594
 C         10.499238   -7.735038   -0.120501
 H          9.924209   -9.720828   -0.222501
 C          6.606319  -12.281970   -0.165339
 C          8.896147  -11.719213   -0.062762
 S         10.273964   -5.974948    0.030437
 C         11.871934   -8.086995   -0.223597
 N          5.860114  -13.178716   -0.205486
 N          9.969236  -12.178350   -0.013972
 C         11.997308   -5.736111   -0.032922
 C         12.689634   -6.954179   -0.173503
 C         12.388385   -9.491378   -0.381444
 C         12.881415   -4.645708   -0.012577
 S         14.453836   -6.760386   -0.274806
 H         12.024361  -10.154258    0.410129
 H         12.075952   -9.927882   -1.337105
 H         13.481265   -9.507341   -0.351430
 N         12.798388   -3.278079    0.127421
 C         14.238147   -5.032076   -0.126120
 C         14.099111   -2.769231    0.079109
 C         11.587528   -2.623680    0.627897
 C         15.013252   -3.880212   -0.043307
 C         14.603019   -1.450876    0.110275
 H         10.962862   -2.245788   -0.184812
 H         11.014306   -3.353515    1.202661
 H         11.860707   -1.810556    1.300304
 C         16.432156   -3.671287    0.003741
 N         13.973850   -0.205719    0.053354
 C         16.025693   -1.233482    0.239172
 C         16.942958   -2.335702    0.199243
 N         17.371148   -4.604100   -0.068266
 C         14.948423    0.759649    0.194074
 C         12.638682    0.111902   -0.458481
 C         16.216368    0.141552    0.315757
 N         18.264646   -2.267793    0.276627
 S         18.826186   -3.822124    0.106679
 C         15.019040    2.159202    0.209439
 H         12.703094    1.032053   -1.042415
 H         12.303303   -0.681902   -1.125481
 H         11.915896    0.254826    0.348242
 S         17.531944    1.281862    0.465263
 S         13.897164    3.486434    0.124253
 C         16.350526    2.604638    0.352398
 C         15.240745    4.647815    0.274153
 C         16.498776    3.990875    0.390276
 C         15.157354    6.063409    0.287947
 C         17.821276    4.692835    0.534791
 C         14.116406    6.972383    0.204163
 H         16.141605    6.502534    0.389320
 H         18.027344    5.347131   -0.319171
 H         17.852314    5.316768    1.434520
 H         18.638009    3.969424    0.603411
 C         12.678572    6.640774    0.066047
 C         14.229563    8.432939    0.238800
 C         11.944189    7.922619    0.022110
 O         12.172471    5.524270   -0.000959
 C         12.863753    8.984273    0.127137
 C         15.384765    9.202895    0.353886
 C         10.580673    8.110571   -0.092241
 C         12.363622   10.294845    0.109123
 C         15.377289   10.629199    0.377590
 C         16.705470    8.677540    0.460362
 C         10.070150    9.424919   -0.110028
 H          9.929540    7.243094   -0.151122
 C         10.991200   10.494391   -0.011867
 H         13.009771   11.159030    0.178655
 N         15.426930   11.794082    0.401746
 N         17.807457    8.304225    0.550035
 C          8.640600    9.693336   -0.224941
 H         10.623162   11.514207   -0.044982
 C          7.963093   10.864564    0.014135
 S          7.513531    8.441990   -0.725138
 C          6.554899   10.788109   -0.185333
 H          8.429269   11.779738    0.352202
 C          6.145267    9.521364   -0.588894
 C          5.765820   12.011384    0.092945
 C          4.822164    9.073157   -0.892372
 N          4.370608   12.106974   -0.067357
 O          6.368226   13.003761    0.497117
 C          3.655120    9.826365   -0.954824
 S          4.501672    7.400211   -1.299940
 C          3.426987   11.265356   -0.696441
 C          3.829642   13.426290    0.330039
 C          2.521815    9.040258   -1.343086
 C          2.818802    7.728806   -1.554844
 O          2.327944   11.735168   -0.979354
 H          2.761775   13.321745    0.496702
 H          4.340945   13.750158    1.233428
 H          4.001140   14.166466   -0.457222
 H          1.533873    9.467940   -1.445965
 H          2.152889    6.926475   -1.842285
