        86
S0: Total Energy = -3012.97033391
 C         -5.169939    1.047815    0.000074
 C         -4.276907    2.138466    0.000134
 C         -2.936929    1.759014    0.000113
 C         -2.780464    0.374510    0.000043
 C         -1.380297    0.020911    0.000028
 C         -0.648127    1.242467    0.000084
 C          0.737488    1.227562    0.000081
 S         -4.272138   -0.490258   -0.000007
 C         -1.586386    2.457207    0.000147
 H         -4.639997    3.161202    0.000184
 H          1.314691    2.148381    0.000121
 C          5.169939   -1.047815   -0.000004
 C          4.276907   -2.138466   -0.000043
 C          2.936929   -1.759014   -0.000037
 C          2.780464   -0.374509    0.000012
 C          1.380297   -0.020910    0.000026
 C          0.648127   -1.242467   -0.000023
 C         -0.737488   -1.227562   -0.000025
 S          4.272138    0.490258    0.000035
 C          1.586386   -2.457206   -0.000068
 H          4.639997   -3.161201   -0.000068
 H         -1.314691   -2.148380   -0.000064
 C         -6.571006    1.270798    0.000068
 C         -7.679656    0.448794    0.000003
 C         -7.661184   -1.032048   -0.000032
 O         -6.677165   -1.766000   -0.000048
 C         -9.071622   -1.478099   -0.000027
 C         -9.552499   -2.776673   -0.000032
 C        -10.940076   -2.991498   -0.000007
 C        -11.784948   -1.868845    0.000084
 C        -11.299945   -0.557406    0.000088
 C         -9.916560   -0.351918    0.000019
 C         -9.083349    0.875390   -0.000001
 C         -9.588026    2.166841   -0.000060
 C        -10.984561    2.467017   -0.000059
 N        -12.110130    2.769238   -0.000060
 C         -8.789490    3.350831   -0.000152
 N         -8.183585    4.346912   -0.000233
 H         -8.854166   -3.609430   -0.000051
 H        -12.860646   -2.023313    0.000162
 H        -12.005651    0.262119    0.000169
 H         -6.775412    2.335767    0.000129
 C          6.571006   -1.270798    0.000019
 C          7.679656   -0.448794    0.000035
 C          7.661184    1.032048   -0.000043
 O          6.677165    1.766000   -0.000052
 C          9.071622    1.478098   -0.000124
 C          9.552500    2.776673   -0.000243
 C         10.940077    2.991497   -0.000317
 C         11.784948    1.868845   -0.000264
 C         11.299945    0.557406   -0.000140
 C          9.916561    0.351917   -0.000069
 C          9.083349   -0.875390    0.000067
 C          9.588026   -2.166841    0.000227
 C         10.984561   -2.467018    0.000232
 N         12.110130   -2.769239    0.000242
 C          8.789490   -3.350831    0.000429
 N          8.183584   -4.346912    0.000601
 H          8.854166    3.609430   -0.000280
 H         12.860647    2.023313   -0.000322
 H         12.005651   -0.262119   -0.000107
 H          6.775412   -2.335767    0.000016
 C         -1.393335    3.320793   -1.267192
 H         -2.119199    4.141249   -1.282670
 H         -0.389165    3.758237   -1.285524
 H         -1.526263    2.726090   -2.176352
 C         -1.393330    3.320657    1.267578
 H         -1.526258    2.725857    2.176674
 H         -0.389157    3.758094    1.285954
 H         -2.119190    4.141115    1.283144
 C          1.393329   -3.320777    1.267281
 H          0.389158   -3.758220    1.285613
 H          2.119192   -4.141233    1.282773
 H          1.526252   -2.726062    2.176433
 C          1.393336   -3.320673   -1.267489
 H          2.119196   -4.141130   -1.283041
 H          0.389164   -3.758110   -1.285865
 H          1.526269   -2.725884   -2.176592
 C         11.501865    4.391392   -0.000454
 H         11.165088    4.950125   -0.882045
 H         11.165111    4.950289    0.881042
 H         12.595428    4.385778   -0.000468
 C        -11.501865   -4.391392   -0.000214
 H        -11.166723   -4.949392   -0.882903
 H        -11.163477   -4.951021    0.880180
 H        -12.595426   -4.385780    0.001743
        86
T1: Total Energy = -3012.92271566
 C          5.153606   -1.050506    0.000258
 C          4.243088   -2.153784    0.000308
 C          2.921278   -1.776083    0.000261
 C          2.752698   -0.369893    0.000209
 C          1.388646   -0.025186    0.000187
 C          0.632633   -1.258881    0.000194
 C         -0.737100   -1.240224    0.000149
 S          4.263607    0.497107    0.000176
 C          1.571305   -2.473994    0.000250
 H          4.609332   -3.174885    0.000360
 H         -1.321485   -2.156146    0.000138
 C         -5.153606    1.050505    0.000055
 C         -4.243088    2.153783    0.000107
 C         -2.921278    1.776082    0.000113
 C         -2.752698    0.369893    0.000086
 C         -1.388646    0.025186    0.000127
 C         -0.632633    1.258880    0.000151
 C          0.737100    1.240223    0.000170
 S         -4.263607   -0.497107    0.000017
 C         -1.571305    2.473993    0.000156
 H         -4.609331    3.174884    0.000138
 H          1.321485    2.156146    0.000178
 C          6.541895   -1.278730    0.000268
 C          7.662216   -0.448166    0.000144
 C          7.645938    1.035955   -0.000070
 O          6.661200    1.768822   -0.000081
 C          9.055626    1.481666   -0.000280
 C          9.538899    2.778576   -0.000538
 C         10.928143    2.990380   -0.000699
 C         11.767902    1.865626   -0.000526
 C         11.278603    0.553647   -0.000264
 C          9.896271    0.352172   -0.000156
 C          9.054717   -0.872081    0.000118
 C          9.557624   -2.172352    0.000292
 C         10.952022   -2.473390    0.000178
 N         12.077913   -2.777319    0.000100
 C          8.761385   -3.355656    0.000601
 N          8.161362   -4.356190    0.000856
 H          8.842802    3.613282   -0.000608
 H         12.844290    2.015960   -0.000591
 H         11.982443   -0.267485   -0.000135
 H          6.749384   -2.342210    0.000360
 C         -6.541895    1.278730    0.000060
 C         -7.662215    0.448167   -0.000012
 C         -7.645938   -1.035955   -0.000268
 O         -6.661200   -1.768822   -0.000335
 C         -9.055626   -1.481666   -0.000447
 C         -9.538899   -2.778575   -0.000745
 C        -10.928144   -2.990379   -0.000885
 C        -11.767902   -1.865625   -0.000708
 C        -11.278603   -0.553646   -0.000401
 C         -9.896271   -0.352172   -0.000270
 C         -9.054717    0.872081    0.000052
 C         -9.557624    2.172352    0.000391
 C        -10.952021    2.473390    0.000373
 N        -12.077913    2.777320    0.000374
 C         -8.761385    3.355656    0.000830
 N         -8.161362    4.356190    0.001204
 H         -8.842802   -3.613282   -0.000870
 H        -12.844290   -2.015959   -0.000816
 H        -11.982443    0.267486   -0.000279
 H         -6.749384    2.342210    0.000120
 C          1.380982   -3.336816   -1.267724
 H          2.109947   -4.154252   -1.282922
 H          0.377982   -3.776585   -1.285333
 H          1.511988   -2.741489   -2.176655
 C          1.380910   -3.336745    1.268260
 H          1.511876   -2.741371    2.177166
 H          0.377904   -3.776502    1.285841
 H          2.109865   -4.154188    1.283539
 C         -1.380972    3.336753    1.268171
 H         -0.377969    3.776517    1.285794
 H         -2.109933    4.154191    1.283413
 H         -1.511974    2.741382    2.177073
 C         -1.380920    3.336807   -1.267814
 H         -2.109879    4.154248   -1.283048
 H         -0.377916    3.776569   -1.285380
 H         -1.511890    2.741476   -2.176748
 C        -11.493397   -4.389007   -0.001221
 H        -11.158822   -4.949050   -0.882868
 H        -11.158870   -4.949455    0.880186
 H        -12.586987   -4.380151   -0.001249
 C         11.493396    4.389008   -0.001188
 H         11.160376    4.948296   -0.883912
 H         11.157317    4.950207    0.879138
 H         12.586985    4.380154    0.000659
        86
S1: Total Energy = -3012.90161644
 C          5.154306   -1.054278   -0.000000
 C          4.252978   -2.151549    0.000027
 C          2.922550   -1.771609   -0.000109
 C          2.760063   -0.373128   -0.000258
 C          1.385278   -0.024602   -0.000411
 C          0.635552   -1.255212   -0.000354
 C         -0.739078   -1.236443   -0.000449
 S          4.264858    0.491868   -0.000218
 C          1.573472   -2.470104   -0.000145
 H          4.616848   -3.173469    0.000152
 H         -1.322732   -2.152715   -0.000394
 C         -5.154306    1.054278   -0.000478
 C         -4.252978    2.151549   -0.000597
 C         -2.922550    1.771609   -0.000670
 C         -2.760063    0.373128   -0.000612
 C         -1.385278    0.024601   -0.000581
 C         -0.635552    1.255212   -0.000638
 C          0.739078    1.236443   -0.000561
 S         -4.264859   -0.491868   -0.000533
 C         -1.573472    2.470104   -0.000751
 H         -4.616848    3.173469   -0.000568
 H          1.322731    2.152715   -0.000588
 C          6.552347   -1.280799    0.000128
 C          7.665434   -0.452044    0.000141
 C          7.643847    1.032856    0.000038
 O          6.655372    1.761223   -0.000092
 C          9.050965    1.482523    0.000122
 C          9.529892    2.780697    0.000072
 C         10.918834    2.997631    0.000186
 C         11.762336    1.874886    0.000416
 C         11.278402    0.561335    0.000467
 C          9.895614    0.353395    0.000302
 C          9.063516   -0.871724    0.000286
 C          9.569264   -2.173256    0.000375
 C         10.963330   -2.471365    0.000562
 N         12.091032   -2.771004    0.000713
 C          8.774348   -3.355945    0.000293
 N          8.170396   -4.355014    0.000230
 H          8.830846    3.612976   -0.000052
 H         12.838231    2.029344    0.000566
 H         11.984688   -0.257714    0.000653
 H          6.759186   -2.344649    0.000246
 C         -6.552347    1.280800   -0.000178
 C         -7.665434    0.452044    0.000013
 C         -7.643847   -1.032856   -0.000360
 O         -6.655372   -1.761223   -0.000748
 C         -9.050966   -1.482523   -0.000208
 C         -9.529892   -2.780697   -0.000493
 C        -10.918834   -2.997631   -0.000289
 C        -11.762337   -1.874886    0.000202
 C        -11.278402   -0.561335    0.000499
 C         -9.895614   -0.353395    0.000292
 C         -9.063516    0.871724    0.000512
 C         -9.569263    2.173255    0.001179
 C        -10.963330    2.471365    0.001614
 N        -12.091032    2.771004    0.001979
 C         -8.774348    3.355945    0.001604
 N         -8.170395    4.355013    0.001981
 H         -8.830846   -3.612976   -0.000872
 H        -12.838231   -2.029344    0.000360
 H        -11.984688    0.257714    0.000872
 H         -6.759186    2.344650   -0.000051
 C          1.382377   -3.333045   -1.268224
 H          2.111591   -4.150200   -1.283351
 H          0.379725   -3.773627   -1.285217
 H          1.512896   -2.737880   -2.177293
 C          1.382156   -3.332737    1.268112
 H          1.512550   -2.737357    2.177058
 H          0.379487   -3.773282    1.285054
 H          2.111344   -4.149908    1.283549
 C         -1.382255    3.333028    1.267322
 H         -0.379597    3.773602    1.284229
 H         -2.111461    4.150188    1.282527
 H         -1.512694    2.737852    2.176395
 C         -1.382279    3.332754   -1.269015
 H         -2.111474    4.149920   -1.284374
 H         -0.379614    3.773306   -1.286043
 H         -1.512752    2.737384   -2.177956
 C        -11.479437   -4.397737   -0.000597
 H        -11.143331   -4.957101   -0.882286
 H        -11.142917   -4.957656    0.880580
 H        -12.573077   -4.392535   -0.000338
 C         11.479437    4.397737   -0.000085
 H         11.144804    4.956505   -0.882722
 H         11.141446    4.958251    0.880140
 H         12.573075    4.392536    0.001940
