        88
S0: Total Energy = -4082.55125903
 C          5.159273    1.091676   -0.073717
 C          4.256867    2.175522   -0.114977
 C          2.922048    1.784475   -0.118732
 C          2.774816    0.398671   -0.091152
 C          1.375657    0.043718   -0.072509
 C          0.637180    1.260905   -0.026181
 C         -0.749882    1.220427    0.064116
 S          4.274364   -0.452253   -0.035991
 C          1.571378    2.479324   -0.117953
 H          4.611090    3.201075   -0.135530
 C         -5.159248   -1.091663    0.073683
 C         -4.256846   -2.175517    0.114875
 C         -2.922026   -1.784476    0.118625
 C         -2.774793   -0.398671    0.091092
 C         -1.375637   -0.043722    0.072419
 C         -0.637161   -1.260903    0.026112
 C          0.749894   -1.220433   -0.064204
 S         -4.274335    0.452266    0.036022
 C         -1.571354   -2.479326    0.117800
 H         -4.611074   -3.201069    0.135386
 C          6.556038    1.328030   -0.062954
 C          7.673593    0.515300   -0.023781
 C          7.665588   -0.963330    0.026289
 O          6.689199   -1.706936    0.035534
 C          9.078193   -1.398187    0.064206
 C          9.574945   -2.693196    0.117668
 C         10.957369   -2.876082    0.145609
 C         11.792177   -1.753470    0.118608
 C         11.302738   -0.444724    0.064574
 C          9.916253   -0.269770    0.037408
 C          9.070015    0.954693   -0.019623
 C          9.567791    2.246980   -0.061365
 C         10.961630    2.559322   -0.048196
 N         12.084202    2.871766   -0.039519
 C          8.760763    3.424003   -0.123541
 N          8.149184    4.414954   -0.175249
 H          8.895636   -3.539499    0.137330
 H         11.388850   -3.869940    0.187659
 H         12.001025    0.379651    0.046239
 H          6.751881    2.394070   -0.093299
 C         -6.556014   -1.328013    0.062928
 C         -7.673569   -0.515279    0.023813
 C         -7.665564    0.963353   -0.026187
 O         -6.689176    1.706959   -0.035419
 C         -9.078169    1.398213   -0.064061
 C         -9.574921    2.693224   -0.117454
 C        -10.957345    2.876112   -0.145364
 C        -11.792154    1.753500   -0.118402
 C        -11.302715    0.444752   -0.064438
 C         -9.916230    0.269795   -0.037302
 C         -9.069991   -0.954671    0.019657
 C         -9.567767   -2.246960    0.061346
 C        -10.961606   -2.559301    0.048183
 N        -12.084179   -2.871743    0.039508
 C         -8.760739   -3.423986    0.123454
 N         -8.149159   -4.414939    0.175110
 H         -8.895613    3.539528   -0.137087
 H        -11.388827    3.869973   -0.187360
 H        -12.001002   -0.379624   -0.046130
 H         -6.751858   -2.394053    0.093226
 C          1.453862    3.448035    1.079029
 H          2.250918    4.197907    1.029225
 H          0.497743    3.976109    1.054005
 H          1.543357    2.918918    2.033198
 C          1.333409    3.247600   -1.441515
 H          1.451371    2.588921   -2.307728
 H          0.322576    3.665014   -1.455458
 H          2.051561    4.069762   -1.534251
 C         -1.453801   -3.447949   -1.079250
 H         -0.497614   -3.975908   -1.054322
 H         -2.250767   -4.197917   -1.029448
 H         -1.543413   -2.918779   -2.033379
 C         -1.333377   -3.247686    1.441312
 H         -2.051520   -4.069863    1.533993
 H         -0.322539   -3.665090    1.455229
 H         -1.451348   -2.589066    2.307568
 O          1.502577   -2.373011   -0.091759
 O         -1.502622    2.372970    0.091626
 C          2.014125   -2.743098   -1.386448
 H          1.196347   -2.960719   -2.080746
 H          2.646567   -1.955814   -1.807824
 H          2.612835   -3.640965   -1.225987
 C         -2.014624    2.742797    1.386210
 H         -2.647218    1.955418    1.807186
 H         -1.197104    2.960272    2.080854
 H         -2.613280    3.640694    1.225720
Cl        -13.529801    1.994709   -0.153869
Cl         13.529824   -1.994676    0.154115
        88
T1: Total Energy = -4082.50486701
 C          5.143496   -1.093675    0.073873
 C          4.225786   -2.188331    0.122565
 C          2.907370   -1.798907    0.129536
 C          2.748032   -0.392338    0.096353
 C          1.382745   -0.048565    0.087698
 C          0.623265   -1.277128    0.045344
 C         -0.745765   -1.234339   -0.065827
 S          4.266935    0.459125    0.030655
 C          1.557786   -2.493802    0.148525
 H          4.582340   -3.212527    0.145379
 C         -5.143503    1.093683   -0.074011
 C         -4.225799    2.188344   -0.122749
 C         -2.907382    1.798924   -0.129770
 C         -2.748037    0.392356   -0.096583
 C         -1.382750    0.048586   -0.087966
 C         -0.623271    1.277150   -0.045625
 C          0.745758    1.234359    0.065555
 S         -4.266933   -0.459111   -0.030775
 C         -1.557797    2.493820   -0.148816
 H         -4.582357    3.212538   -0.145561
 C          6.529930   -1.335312    0.059638
 C          7.657448   -0.515021    0.017057
 C          7.650955    0.968199   -0.030695
 O          6.673227    1.709460   -0.041063
 C          9.062311    1.403401   -0.063768
 C          9.561094    2.696763   -0.111474
 C         10.945276    2.877640   -0.134815
 C         11.774801    1.752665   -0.109217
 C         11.281806    0.443097   -0.061214
 C          9.896131    0.271112   -0.038515
 C          9.043642   -0.950005    0.011614
 C          9.540019   -2.252242    0.045866
 C         10.931523   -2.564937    0.033220
 N         12.054919   -2.877713    0.024784
 C          8.735460   -3.428805    0.097434
 N          8.129192   -4.424507    0.140224
 H          8.883769    3.544765   -0.130179
 H         11.379138    3.870540   -0.172125
 H         11.978539   -0.382603   -0.043647
 H          6.728368   -2.399973    0.090390
 C         -6.529936    1.335316   -0.059719
 C         -7.657448    0.515020   -0.017027
 C         -7.650944   -0.968200    0.030743
 O         -6.673210   -1.709456    0.041026
 C         -9.062295   -1.403410    0.063882
 C         -9.561066   -2.696776    0.111621
 C        -10.945246   -2.877662    0.135029
 C        -11.774780   -1.752692    0.109462
 C        -11.281796   -0.443121    0.061439
 C         -9.896123   -0.271127    0.038676
 C         -9.043643    0.949996   -0.011466
 C         -9.540031    2.252233   -0.045611
 C        -10.931537    2.564918   -0.032871
 N        -12.054934    2.877685   -0.024356
 C         -8.735481    3.428805   -0.097118
 N         -8.129221    4.424513   -0.139869
 H         -8.883735   -3.544773    0.130297
 H        -11.379099   -3.870564    0.172366
 H        -11.978535    0.382575    0.043906
 H         -6.728382    2.399974   -0.090506
 C          1.432572   -3.482297   -1.030733
 H          2.229507   -4.231402   -0.972067
 H          0.475547   -4.007706   -0.990030
 H          1.517084   -2.969977   -1.994333
 C          1.332528   -3.238232    1.487934
 H          1.453319   -2.563628    2.341289
 H          0.323043   -3.658446    1.515123
 H          2.054675   -4.055481    1.590311
 C         -1.432563    3.482363    1.030397
 H         -0.475547    4.007785    0.989647
 H         -2.229510    4.231455    0.971719
 H         -1.517044    2.970082    1.994020
 C         -1.332567    3.238198   -1.488261
 H         -2.054717    4.055441   -1.590658
 H         -0.323084    3.658413   -1.515486
 H         -1.453371    2.563559   -2.341587
 O          1.508503    2.376180    0.093824
 O         -1.508508   -2.376159   -0.094098
 C          2.027410    2.743464    1.388498
 H          1.211760    2.985267    2.077020
 H          2.639849    1.944262    1.816164
 H          2.647066    3.625398    1.221467
 C         -2.027411   -2.743443   -1.388773
 H         -2.639855   -1.944244   -1.816440
 H         -1.211759   -2.985239   -2.077296
 H         -2.647062   -3.625381   -1.221748
Cl        -13.513819   -1.987181    0.138759
Cl         13.513843    1.987142   -0.138437
        88
S1: Total Energy = -4082.48490972
 C          5.144620   -1.097703    0.071522
 C          4.235527   -2.187039    0.115153
 C          2.908915   -1.795491    0.123275
 C          2.755270   -0.396147    0.096915
 C          1.379727   -0.048759    0.087188
 C          0.626458   -1.273502    0.038438
 C         -0.747525   -1.230513   -0.072143
 S          4.268364    0.453908    0.035081
 C          1.560222   -2.490856    0.134075
 H          4.590130   -3.211962    0.134083
 C         -5.144626    1.097714   -0.071496
 C         -4.235536    2.187053   -0.115132
 C         -2.908923    1.795508   -0.123253
 C         -2.755274    0.396165   -0.096882
 C         -1.379730    0.048780   -0.087156
 C         -0.626462    1.273525   -0.038401
 C          0.747523    1.230535    0.072178
 S         -4.268365   -0.453894   -0.035035
 C         -1.560230    2.490876   -0.134057
 H         -4.590141    3.211975   -0.134070
 C          6.540371   -1.337746    0.057907
 C          7.660675   -0.519198    0.018756
 C          7.649976    0.964009   -0.030437
 O          6.669160    1.701997   -0.041026
 C          9.059273    1.401805   -0.065736
 C          9.554370    2.696251   -0.116215
 C         10.938337    2.881526   -0.141535
 C         11.771202    1.758191   -0.114837
 C         11.283322    0.447427   -0.063774
 C          9.896799    0.269525   -0.039259
 C          9.053880   -0.951354    0.014536
 C          9.551437   -2.254232    0.054303
 C         10.942548   -2.565599    0.039084
 N         12.067160   -2.875965    0.028492
 C          8.747358   -3.429486    0.115730
 N          8.137759   -4.423540    0.167001
 H          8.874387    3.542133   -0.135531
 H         11.369459    3.875515   -0.181146
 H         11.982320   -0.376356   -0.045489
 H          6.738040   -2.402868    0.085970
 C         -6.540378    1.337752   -0.057888
 C         -7.660678    0.519199   -0.018743
 C         -7.649971   -0.964009    0.030431
 O         -6.669151   -1.701991    0.041011
 C         -9.059266   -1.401813    0.065709
 C         -9.554356   -2.696262    0.116163
 C        -10.938322   -2.881546    0.141467
 C        -11.771193   -1.758216    0.114776
 C        -11.283320   -0.447448    0.063740
 C         -9.896798   -0.269538    0.039241
 C         -9.053885    0.951347   -0.014530
 C         -9.551448    2.254223   -0.054288
 C        -10.942560    2.565584   -0.039092
 N        -12.067173    2.875947   -0.028521
 C         -8.747374    3.429480   -0.115696
 N         -8.137775    4.423536   -0.166936
 H         -8.874368   -3.542141    0.135473
 H        -11.369439   -3.875539    0.181058
 H        -11.982323    0.376331    0.045458
 H         -6.738051    2.402873   -0.085954
 C          1.436675   -3.468763   -1.054560
 H          2.233812   -4.218030   -1.001794
 H          0.480022   -3.995254   -1.019444
 H          1.521864   -2.947659   -2.013353
 C          1.331203   -3.247208    1.466422
 H          1.449663   -2.580226    2.326037
 H          0.322022   -3.668454    1.487190
 H          2.053413   -4.065015    1.563095
 C         -1.436698    3.468804    1.054562
 H         -0.480059    3.995319    1.019432
 H         -2.233853    4.218052    1.001788
 H         -1.521870    2.947713    2.013364
 C         -1.331207    3.247207   -1.466414
 H         -2.053419    4.065011   -1.563104
 H         -0.322027    3.668456   -1.487185
 H         -1.449660    2.580212   -2.326020
 O          1.506044    2.373421    0.105115
 O         -1.506040   -2.373403   -0.105083
 C          2.030249    2.736801    1.399495
 H          1.216726    2.975025    2.091597
 H          2.645271    1.936768    1.821502
 H          2.647815    3.620048    1.232479
 C         -2.030200   -2.736808   -1.399474
 H         -2.645206   -1.936783   -1.821521
 H         -1.216652   -2.975048   -2.091540
 H         -2.647774   -3.620051   -1.232463
Cl        -13.509289   -1.999234    0.146605
Cl         13.509299    1.999200   -0.146689
