       132
S0: Total Energy = -4885.97110236
 C          7.124194    1.427277    0.050743
 C          6.175051    2.463002    0.063519
 C          4.863453    1.994454    0.040220
 C          4.763302    0.586953    0.007020
 C          3.424961    0.138701    0.001016
 C          2.534709    1.199038    0.021563
 C          1.168283    0.732594    0.010178
 C          1.219276   -0.685925   -0.042809
 C          0.049300   -1.428283   -0.049491
 S          6.329950   -0.167749    0.003887
 S          3.284965    2.774472    0.050709
 C          2.679226   -1.195761   -0.063033
 H          6.465758    3.507263    0.089385
 H          0.069784   -2.513326   -0.082239
 C         -7.124140   -1.427133   -0.050851
 C         -6.174993   -2.462854   -0.063649
 C         -4.863393   -1.994314   -0.040296
 C         -4.763239   -0.586815   -0.007056
 C         -3.424896   -0.138568   -0.000980
 C         -2.534646   -1.198908   -0.021532
 C         -1.168219   -0.732468   -0.010121
 C         -1.219210    0.686050    0.042883
 C         -0.049235    1.428411    0.049551
 S         -6.329886    0.167892   -0.003994
 S         -3.284908   -2.774339   -0.050741
 C         -2.679158    1.195890    0.063127
 H         -6.465701   -3.507114   -0.089536
 H         -0.069723    2.513454    0.082294
 C          8.508330    1.742383    0.073682
 C          9.666890    0.993417    0.070674
 C          9.744241   -0.485673    0.033849
 O          8.810424   -1.281309    0.003000
 C         11.180363   -0.839459    0.041191
 C         11.744846   -2.105844    0.012885
 C         13.140768   -2.230894    0.023630
 C         13.913235   -1.054813    0.056374
 C         13.345657    0.220357    0.084956
 C         11.950050    0.336768    0.078417
 C         11.040093    1.508288    0.100654
 C         11.461156    2.828733    0.145654
 C         12.835437    3.217263    0.172491
 N         13.939020    3.591224    0.195955
 C         10.588571    3.958896    0.173256
 N          9.920733    4.914244    0.197832
 H          8.643745    2.817884    0.100314
 H         11.102065   -2.981323   -0.018427
 H         14.996969   -1.140134    0.057946
 H         13.996459    1.083780    0.107882
 C         -8.508271   -1.742285   -0.073784
 C         -9.666905   -0.993422   -0.070739
 C         -9.744432    0.485663   -0.033851
 O         -8.810717    1.281417   -0.002997
 C        -11.180592    0.839291   -0.041251
 C        -11.745224    2.105610   -0.012958
 C        -13.141162    2.230495   -0.023745
 C        -13.913491    1.054323   -0.056525
 C        -13.345761   -0.220779   -0.085097
 C        -11.950141   -0.337019   -0.078512
 C        -11.040062   -1.508433   -0.100734
 C        -11.461049   -2.828900   -0.145739
 C        -12.835320   -3.217463   -0.172604
 N        -13.938923   -3.591364   -0.196084
 C        -10.588433   -3.959040   -0.173312
 N         -9.920629   -4.914410   -0.197938
 H         -8.643612   -2.817791   -0.100447
 H        -11.102547    2.981164    0.018385
 H        -14.997234    1.139516   -0.058136
 H        -13.996453   -1.084286   -0.108057
 C          3.059184   -1.900493   -1.385420
 C          4.220833   -2.684447   -1.457855
 C          4.628251   -3.255595   -2.662144
 C          3.894445   -3.069360   -3.841109
 C          2.741424   -2.279512   -3.767326
 C          2.329934   -1.703674   -2.564468
 H          4.811697   -2.862062   -0.564410
 H          5.535112   -3.855684   -2.683106
 H          2.151297   -2.108009   -4.664840
 H          1.432534   -1.093868   -2.553944
 C          2.905574   -2.085232    1.177287
 C          2.572668   -3.447980    1.146851
 C          2.692775   -4.241545    2.285997
 C          3.152702   -3.710360    3.498703
 C          3.478138   -2.349712    3.527006
 C          3.356445   -1.549949    2.389668
 H          2.226711   -3.899815    0.222035
 H          2.426366   -5.294689    2.229246
 H          3.834673   -1.903209    4.452504
 H          3.612922   -0.497232    2.456162
 C         -2.905488    2.085398   -1.177170
 C         -2.572323    3.448083   -1.146800
 C         -2.692405    4.241646   -2.285951
 C         -3.152561    3.710520   -3.498596
 C         -3.478247    2.349930   -3.526835
 C         -3.356577    1.550169   -2.389495
 H         -2.226169    3.899871   -0.222035
 H         -2.425795    5.294742   -2.229252
 H         -3.834958    1.903472   -4.452287
 H         -3.613255    0.497497   -2.455936
 C         -3.059123    1.900573    1.385542
 C         -4.220665    2.684689    1.457946
 C         -4.628100    3.255801    2.662245
 C         -3.894422    3.069363    3.841259
 C         -2.741510    2.279355    3.767508
 C         -2.330000    1.703556    2.564637
 H         -4.811425    2.862465    0.564465
 H         -5.534873    3.856023    2.683179
 H         -2.151483    2.107691    4.665058
 H         -1.432686    1.093625    2.554143
 C          4.320952   -3.717507   -5.137132
 H          3.945390   -4.747040   -5.209063
 H          3.937049   -3.169669   -6.003870
 C          3.317011   -4.582523    4.720962
 H          3.246193   -3.996638    5.643190
 H          2.555515   -5.368997    4.757173
 C         -3.316834    4.582689   -4.720856
 H         -2.555082    5.368907   -4.757257
 H         -3.246404    3.996745   -5.643075
 C         -4.320944    3.717469    5.137297
 H         -3.937242    3.169474    6.004025
 H         -3.945187    4.746921    5.209368
 H          5.412057   -3.765534   -5.220179
 H          4.296305   -5.079484    4.724770
 H         -4.295961    5.079980   -4.724476
 H         -5.412049    3.765702    5.220229
 C        -13.805232    3.584737   -0.020470
 H        -13.118864    4.365647    0.319638
 H        -14.141694    3.856031   -1.029691
 H        -14.688209    3.594558    0.627380
 C         13.804676   -3.585216    0.020353
 H         14.141013   -3.856595    1.029593
 H         13.118243   -4.366028   -0.319848
 H         14.687709   -3.595116   -0.627419
       132
T1: Total Energy = -4885.92477331
 C         -7.103291   -1.431262    0.045508
 C         -6.136073   -2.472229    0.055479
 C         -4.839037   -2.001132    0.030769
 C         -4.737788   -0.579974   -0.001091
 C         -3.423049   -0.132529   -0.009808
 C         -2.502735   -1.205039    0.007459
 C         -1.171823   -0.740577    0.001975
 C         -1.219861    0.698728   -0.044004
 C         -0.063906    1.436957   -0.041544
 S         -6.320878    0.169209   -0.001591
 S         -3.257190   -2.786130    0.036669
 C         -2.681837    1.203770   -0.069564
 H         -6.425953   -3.516280    0.080835
 H         -0.083653    2.521984   -0.067603
 C          7.103299    1.431281   -0.045654
 C          6.136084    2.472250   -0.055714
 C          4.839044    2.001153   -0.031133
 C          4.737792    0.579994    0.000690
 C          3.423053    0.132551    0.009329
 C          2.502739    1.205061   -0.007965
 C          1.171827    0.740596   -0.002522
 C          1.219865   -0.698710    0.043449
 C          0.063910   -1.436939    0.040987
 S          6.320878   -0.169192    0.001267
 S          3.257198    2.786152   -0.037131
 C          2.681843   -1.203751    0.069021
 H          6.425969    3.516301   -0.080988
 H          0.083657   -2.521965    0.067064
 C         -8.477831   -1.751442    0.071356
 C         -9.646562   -0.997326    0.071315
 C         -9.724211    0.482685    0.033848
 O         -8.788231    1.276744    0.000495
 C        -11.159476    0.839203    0.043799
 C        -11.723936    2.102874    0.016030
 C        -13.123341    2.226856    0.029402
 C        -13.890772    1.051772    0.065709
 C        -13.319691   -0.225958    0.093913
 C        -11.926968   -0.340266    0.083747
 C        -11.010413   -1.509012    0.104728
 C        -11.430621   -2.836736    0.151865
 C        -12.802989   -3.225115    0.181601
 N        -13.907370   -3.598988    0.207363
 C        -10.560091   -3.966284    0.178987
 N         -9.895816   -4.925083    0.203546
 H         -8.614190   -2.826159    0.097389
 H        -11.082046    2.979367   -0.016769
 H        -14.974555    1.134209    0.071116
 H        -13.969986   -1.089733    0.120014
 C          8.477845    1.751453   -0.071252
 C          9.646563    0.997318   -0.070957
 C          9.724174   -0.482694   -0.033505
 O          8.788170   -1.276735   -0.000362
 C         11.159436   -0.839237   -0.043062
 C         11.723865   -2.102919   -0.015139
 C         13.123270   -2.226927   -0.028119
 C         13.890733   -1.051857   -0.064203
 C         13.319684    0.225883   -0.092565
 C         11.926960    0.340219   -0.082788
 C         11.010430    1.508981   -0.104012
 C         11.430661    2.836703   -0.151032
 C         12.803039    3.225078   -0.180364
 N         13.907423    3.598965   -0.205807
 C         10.560141    3.966251   -0.178425
 N          9.895869    4.925046   -0.203205
 H          8.614221    2.826169   -0.097230
 H         11.081949   -2.979399    0.017479
 H         14.974516   -1.134314   -0.069297
 H         13.970003    1.089646   -0.118471
 C         -3.060594    1.899803   -1.396921
 C         -4.219892    2.686785   -1.475084
 C         -4.625216    3.248111   -2.684288
 C         -3.892361    3.048146   -3.862038
 C         -2.742570    2.254378   -3.782065
 C         -2.333336    1.687304   -2.574327
 H         -4.810123    2.874007   -0.583344
 H         -5.529740    3.851327   -2.710536
 H         -2.154066    2.071837   -4.678321
 H         -1.438849    1.073217   -2.559609
 C         -2.916420    2.092097    1.169345
 C         -2.598385    3.458217    1.136246
 C         -2.723533    4.250578    2.275559
 C         -3.173612    3.714696    3.490024
 C         -3.483300    2.350371    3.520541
 C         -3.355723    1.551369    2.383471
 H         -2.260669    3.913467    0.210128
 H         -2.469428    5.306590    2.217482
 H         -3.831328    1.900357    4.447447
 H         -3.600259    0.495871    2.452254
 C          2.916454   -2.092035   -1.169914
 C          2.598414   -3.458155   -1.136875
 C          2.723588   -4.250474   -2.276214
 C          3.173698   -3.714548   -3.490648
 C          3.483391   -2.350224   -3.521106
 C          3.355788   -1.551263   -2.384010
 H          2.260673   -3.913440   -0.210783
 H          2.469479   -5.306488   -2.218181
 H          3.831443   -1.900177   -4.447987
 H          3.600330   -0.495764   -2.452747
 C          3.060574   -1.899827    1.396361
 C          4.219892   -2.686777    1.474532
 C          4.625193   -3.248137    2.683729
 C          3.892294   -3.048239    3.861461
 C          2.742481   -2.254502    3.781481
 C          2.333270   -1.687394    2.573752
 H          4.810159   -2.873947    0.582805
 H          5.529733   -3.851329    2.709981
 H          2.153944   -2.072014    4.677727
 H          1.438765   -1.073334    2.559026
 C         -4.318177    3.685376   -5.163440
 H         -3.956505    4.719787   -5.235614
 H         -3.920320    3.139883   -6.025199
 C         -3.343662    4.585619    4.712174
 H         -3.263771    4.001143    5.634475
 H         -2.591002    5.380602    4.745386
 C          3.343770   -4.585429   -4.712826
 H          2.590978   -5.380282   -4.746188
 H          3.264104   -4.000886   -5.635103
 C          4.318091   -3.685503    5.162853
 H          3.920035   -3.140164    6.024617
 H          3.956615   -4.719991    5.234895
 H         -5.409205    3.718083   -5.254389
 H         -4.328506    5.071326    4.718040
 H          4.328530   -5.071306   -4.718582
 H          5.409116   -3.718007    5.253919
 C         13.777625   -3.586191   -0.018757
 H         13.322826   -4.240799    0.733090
 H         13.661565   -4.083394   -0.990470
 H         14.848598   -3.514537    0.191926
 C        -13.777721    3.586109    0.020207
 H        -13.661247    4.083400    0.991825
 H        -13.323256    4.240657   -0.731895
 H        -14.848783    3.514421   -0.190011
       132
S1: Total Energy = -4885.90686869
 C         -7.106705   -1.430894    0.040658
 C         -6.148462   -2.468184    0.046979
 C         -4.843621   -1.995409    0.024289
 C         -4.744594   -0.580723   -0.001570
 C         -3.420891   -0.133028   -0.007889
 C         -2.509978   -1.202689    0.004969
 C         -1.170457   -0.738659    0.001102
 C         -1.218932    0.697260   -0.040414
 C         -0.059507    1.436279   -0.037395
 S         -6.323848    0.168673   -0.000376
 S         -3.264248   -2.780700    0.027545
 C         -2.679832    1.202645   -0.061172
 H         -6.437121   -3.512655    0.068543
 H         -0.078799    2.521273   -0.060736
 C          7.106701    1.430894   -0.040782
 C          6.148454    2.468179   -0.047241
 C          4.843613    1.995399   -0.024694
 C          4.744587    0.580712    0.001133
 C          3.420885    0.133015    0.007395
 C          2.509970    1.202675   -0.005482
 C          1.170450    0.738645   -0.001616
 C          1.218924   -0.697274    0.039902
 C          0.059500   -1.436293    0.036867
 S          6.323842   -0.168680   -0.000073
 S          3.264238    2.780686   -0.028069
 C          2.679824   -1.202660    0.060653
 H          6.437112    3.512653   -0.068689
 H          0.078792   -2.521289    0.060202
 C         -8.489780   -1.750197    0.066737
 C         -9.652763   -0.997821    0.068791
 C         -9.727790    0.483756    0.029989
 O         -8.789592    1.275166   -0.003630
 C        -11.161625    0.842002    0.038461
 C        -11.723871    2.106188    0.008243
 C        -13.123596    2.233034    0.020695
 C        -13.892752    1.058857    0.059971
 C        -13.324617   -0.219937    0.090745
 C        -11.931098   -0.338243    0.080614
 C        -11.021139   -1.507066    0.103996
 C        -11.442188   -2.836446    0.155180
 C        -12.813965   -3.223804    0.186724
 N        -13.919485   -3.595849    0.214227
 C        -10.571948   -3.964866    0.185699
 N         -9.904955   -4.922471    0.213014
 H         -8.625427   -2.825210    0.091130
 H        -11.080448    2.981590   -0.025533
 H        -14.976440    1.143482    0.065854
 H        -13.976319   -1.082616    0.118915
 C          8.489780    1.750206   -0.066491
 C          9.652765    0.997832   -0.068321
 C          9.727787   -0.483744   -0.029516
 O          8.789583   -1.275155    0.003928
 C         11.161624   -0.841987   -0.037754
 C         11.723865   -2.106174   -0.007466
 C         13.123593   -2.233017   -0.019646
 C         13.892755   -1.058838   -0.058727
 C         13.324625    0.219957   -0.089563
 C         11.931103    0.338260   -0.079711
 C         11.021146    1.507083   -0.103214
 C         11.442193    2.836470   -0.154224
 C         12.813971    3.223845   -0.185505
 N         13.919491    3.595903   -0.212831
 C         10.571945    3.964883   -0.184750
 N          9.904948    4.922484   -0.212103
 H          8.625430    2.825222   -0.090753
 H         11.080438   -2.981578    0.026166
 H         14.976445   -1.143461   -0.064397
 H         13.976332    1.082637   -0.117562
 C         -3.060878    1.905247   -1.383981
 C         -4.216465    2.698364   -1.454636
 C         -4.623473    3.265810   -2.660332
 C         -3.896124    3.066185   -3.841691
 C         -2.750295    2.265809   -3.769206
 C         -2.339650    1.692174   -2.565251
 H         -4.802397    2.885266   -0.560044
 H         -5.524962    3.873693   -2.681064
 H         -2.166509    2.083110   -4.668460
 H         -1.449067    1.072206   -2.556572
 C         -2.909386    2.082849    1.184367
 C         -2.593160    3.449566    1.159330
 C         -2.714453    4.233479    2.304843
 C         -3.158728    3.688254    3.517391
 C         -3.466553    2.323272    3.539639
 C         -3.342553    1.532570    2.396528
 H         -2.260202    3.911941    0.235023
 H         -2.462008    5.290201    2.253325
 H         -3.810077    1.866301    4.464775
 H         -3.585030    0.476164    2.458728
 C          2.909377   -2.082835   -1.184905
 C          2.593040   -3.449529   -1.159944
 C          2.714327   -4.233400   -2.305486
 C          3.158708   -3.688156   -3.517987
 C          3.466641   -2.323198   -3.540160
 C          3.342644   -1.532537   -2.397020
 H          2.259993   -3.911916   -0.235676
 H          2.461795   -5.290104   -2.254028
 H          3.810247   -1.866213   -4.465258
 H          3.585206   -0.476146   -2.459160
 C          3.060881   -1.905287    1.383445
 C          4.216420   -2.698483    1.454038
 C          4.623448   -3.265965    2.659708
 C          3.896170   -3.066301    3.841105
 C          2.750390   -2.265851    3.768683
 C          2.339723   -1.692180    2.564751
 H          4.802292   -2.885421    0.559414
 H          5.524897   -3.873911    2.680391
 H          2.166660   -2.083122    4.667966
 H          1.449180   -1.072156    2.556122
 C         -4.323671    3.710226   -5.139020
 H         -3.957137    4.743113   -5.208434
 H         -3.931643    3.166112   -6.004282
 C         -3.324660    4.550155    4.746374
 H         -3.240041    3.959239    5.664113
 H         -2.573084    5.346029    4.781929
 C          3.324630   -4.550018   -4.747000
 H          2.572911   -5.345752   -4.782690
 H          3.240230   -3.959035   -5.664715
 C          4.323742   -3.710381    5.138407
 H          3.931712   -3.166305    6.003693
 H          3.957231   -4.743277    5.207787
 H         -5.414835    3.748677   -5.225650
 H         -4.310218    5.034227    4.759742
 H          4.310099   -5.034274   -4.760274
 H          5.414908   -3.748812    5.225026
 C         13.774802   -3.593433   -0.003040
 H         13.354952   -4.224670    0.788588
 H         13.611131   -4.118982   -0.952687
 H         14.854564   -3.519645    0.155367
 C        -13.774809    3.593449    0.004181
 H        -13.611031    4.118983    0.953819
 H        -13.355052    4.224699   -0.787484
 H        -14.854590    3.519661   -0.154100
