       135
S0: Total Energy = -5360.37193259
 C         -6.607831    1.495913    0.014787
 C         -5.979406    0.235781    0.015122
 C         -4.574687    0.345494    0.008501
 C         -4.129734    1.680974    0.002770
 C         -2.722503    1.787511    0.013270
 C         -2.120741    0.541695    0.016555
 C         -0.680593    0.656666    0.014515
 C         -0.380976    2.044923   -0.012287
 C          0.935218    2.477316   -0.009539
 S         -5.458083    2.831854    0.002232
 S         -3.242138   -0.794300    0.012129
 C         -1.671428    2.898925   -0.018338
 H          1.181203    3.534709   -0.023725
 C          7.889478    0.713269   -0.033934
 C          7.223938    1.950905   -0.026021
 C          5.837635    1.818875   -0.006244
 C          5.394079    0.478718    0.003048
 C          3.986802    0.373089    0.005211
 C          3.384249    1.619811    0.006174
 C          1.945090    1.503554    0.013718
 C          1.645628    0.115884    0.041211
 C          0.328720   -0.316726    0.038275
 S          6.726874   -0.638011   -0.011477
 S          4.498723    2.962617    0.002006
 C          2.935470   -0.737743    0.046406
 H          7.762996    2.891688   -0.035759
 H          0.083396   -1.374289    0.050821
 C         -9.872704   -0.152452    0.032685
 C        -10.647264   -1.294560    0.039356
 C        -10.138338   -2.684966    0.040829
 O         -8.966044   -3.049739    0.038163
 C        -11.319968   -3.574253    0.045868
 C        -11.342457   -4.960765    0.051108
 C        -12.577893   -5.622952    0.057984
 C        -13.749721   -4.843754    0.065914
 C        -13.727814   -3.447677    0.061000
 C        -12.489785   -2.793591    0.049892
 C        -12.112309   -1.358744    0.045725
 C        -13.017615   -0.308413    0.047112
 C        -14.434517   -0.489045    0.051409
 N        -15.596595   -0.577631    0.054670
 C        -12.656934    1.073313    0.044378
 N        -12.415339    2.213886    0.042658
 H        -10.416003    0.785911    0.032253
 H        -10.407932   -5.515129    0.051385
 H        -14.713149   -5.347164    0.078074
 H        -14.665140   -2.908283    0.069278
 C          9.308055    0.678412   -0.056887
 C         10.247000   -0.332890   -0.069874
 C          9.957820   -1.785631   -0.052311
 O          8.856849   -2.327517   -0.032403
 C         11.262824   -2.482136   -0.062772
 C         11.498458   -3.848449   -0.048031
 C         12.821133   -4.312891   -0.057285
 C         13.858937   -3.362810   -0.074145
 C         13.622306   -1.986723   -0.089663
 C         12.298396   -1.530890   -0.085144
 C         11.704305   -0.171362   -0.096411
 C         12.437578    1.005211   -0.132970
 C         13.865184    1.043763   -0.157133
 N         15.026945    1.134514   -0.177852
 C         11.869796    2.315300   -0.155377
 N         11.457283    3.405599   -0.176068
 H          9.703862    1.687873   -0.065847
 H         10.660251   -4.539610   -0.027822
 H         14.888428   -3.711902   -0.073235
 H         14.465560   -1.309693   -0.100513
 C         -1.858706    3.708932   -1.321485
 C         -2.761262    4.781974   -1.366098
 C         -3.006925    5.465836   -2.556115
 C         -2.363369    5.107631   -3.747451
 C         -1.470991    4.029761   -3.701747
 C         -1.222487    3.341404   -2.514010
 H         -3.270265    5.099564   -0.461086
 H         -3.712762    6.293416   -2.555507
 H         -0.959101    3.719455   -4.609984
 H         -0.526804    2.508713   -2.524465
 C         -1.679387    3.783804    1.245856
 C         -1.002357    5.013368    1.257681
 C         -0.930618    5.782248    2.417161
 C         -1.533256    5.359323    3.610287
 C         -2.202243    4.130823    3.596650
 C         -2.274183    3.355097    2.438032
 H         -0.534885    5.382234    0.349607
 H         -0.397875    6.730389    2.392699
 H         -2.677827    3.769703    4.505693
 H         -2.796399    2.404133    2.473079
 C          2.937443   -1.630952   -1.211794
 C          2.272654   -2.866888   -1.208151
 C          2.195061   -3.643470   -2.362329
 C          2.779881   -3.222045   -3.564544
 C          3.436934   -1.986844   -3.566122
 C          3.514408   -1.203564   -2.413275
 H          1.819834   -3.234672   -0.292254
 H          1.672289   -4.596777   -2.326087
 H          3.899167   -1.627114   -4.482589
 H          4.027589   -0.248131   -2.459317
 C          3.128019   -1.541157    1.352907
 C          4.057114   -2.591508    1.404217
 C          4.308309   -3.270984    2.594936
 C          3.643668   -2.931677    3.780747
 C          2.724609   -1.877417    3.728265
 C          2.470566   -1.192517    2.539090
 H          4.584865   -2.892680    0.504398
 H          5.036515   -4.078851    2.599681
 H          2.195723   -1.582383    4.631873
 H          1.753749   -0.377963    2.544678
 C         -2.604703    5.872290   -5.027517
 H         -1.919599    6.726163   -5.115177
 H         -2.448584    5.239300   -5.907224
 C         -1.482383    6.213412    4.855076
 H         -1.645537    5.615451    5.757422
 H         -0.516857    6.721632    4.952904
 C          2.725033   -4.084508   -4.803397
 H          1.774425   -4.624269   -4.874032
 H          2.845978   -3.486879   -5.712691
 C          3.893874   -3.692566    5.061432
 H          3.662553   -3.082795    5.940865
 H          3.269745   -4.594585    5.116264
 H         -3.624237    6.269835   -5.070034
 H         -2.256413    6.992079    4.834094
 H          3.524634   -4.837206   -4.798409
 H          4.937320   -4.017016    5.136489
 C         13.129906   -5.789195   -0.070631
 H         12.292601   -6.376007    0.318664
 H         13.328170   -6.136033   -1.093361
 H         14.019113   -6.016938    0.526282
 C        -12.657076   -7.128972    0.036990
 H        -12.858176   -7.494300   -0.978634
 H        -11.719462   -7.582956    0.370823
 H        -13.465939   -7.495201    0.677963
 S         -7.124643   -1.070136    0.023376
 C         -7.999371    1.417115    0.019583
 H         -8.672270    2.267538    0.019391
 C         -8.475872    0.095386    0.025774
       135
T1: Total Energy = -5360.32576840
 C         -6.588768    1.511613    0.003180
 C         -5.945452    0.245252    0.001576
 C         -4.561129    0.357345   -0.005585
 C         -4.106631    1.712404   -0.009809
 C         -2.724154    1.819034    0.000403
 C         -2.101040    0.552207    0.001524
 C         -0.694823    0.668260    0.007455
 C         -0.382630    2.073109   -0.012200
 C          0.922216    2.499445    0.000517
 S         -5.447323    2.857962   -0.009247
 S         -3.227620   -0.790479   -0.004224
 C         -1.671947    2.928837   -0.025061
 H          1.173473    3.555428   -0.007123
 C          7.862697    0.710453   -0.021829
 C          7.187450    1.957638   -0.010709
 C          5.811677    1.824311    0.010140
 C          5.360529    0.474726    0.017691
 C          3.972513    0.369257    0.021392
 C          3.351593    1.634152    0.025147
 C          1.943226    1.516893    0.025191
 C          1.631522    0.112495    0.045884
 C          0.327042   -0.314428    0.032800
 S          6.705064   -0.644623    0.000501
 S          4.475429    2.977201    0.022166
 C          2.921609   -0.741223    0.057133
 H          7.728313    2.896920   -0.019798
 H          0.076484   -1.370630    0.039025
 C         -9.838079   -0.155920    0.027291
 C        -10.610952   -1.312371    0.036204
 C        -10.091543   -2.699869    0.035679
 O         -8.915377   -3.054380    0.028000
 C        -11.264746   -3.600172    0.045943
 C        -11.277893   -4.984573    0.051910
 C        -12.511551   -5.656378    0.064712
 C        -13.684449   -4.884671    0.077111
 C        -13.670863   -3.485008    0.071396
 C        -12.439385   -2.824502    0.054609
 C        -12.065514   -1.386772    0.047901
 C        -12.981477   -0.336267    0.051738
 C        -14.395066   -0.527122    0.061340
 N        -15.557231   -0.625053    0.068938
 C        -12.633334    1.046759    0.046331
 N        -12.405599    2.191066    0.042592
 H        -10.389255    0.777102    0.028764
 H        -10.339584   -5.533056    0.048195
 H        -14.645326   -5.392582    0.093199
 H        -14.611802   -2.951908    0.083296
 C          9.274946    0.677161   -0.047636
 C         10.217704   -0.343407   -0.065569
 C          9.923753   -1.796114   -0.052314
 O          8.819547   -2.332690   -0.028343
 C         11.224988   -2.499090   -0.073060
 C         11.456611   -3.864181   -0.066803
 C         12.780532   -4.332858   -0.086445
 C         13.817258   -3.385768   -0.105254
 C         13.582952   -2.006142   -0.111803
 C         12.262398   -1.548102   -0.096552
 C         11.666962   -0.187423   -0.096631
 C         12.405305    0.993310   -0.126961
 C         13.831283    1.027476   -0.156138
 N         14.994002    1.114193   -0.180505
 C         11.843720    2.304507   -0.136274
 N         11.438660    3.398540   -0.146161
 H          9.674553    1.684505   -0.055320
 H         10.616590   -4.553528   -0.045455
 H         14.846248   -3.735946   -0.113772
 H         14.428014   -1.331353   -0.124984
 C         -1.854295    3.732716   -1.332636
 C         -2.754623    4.807544   -1.384128
 C         -2.996192    5.484573   -2.578382
 C         -2.351217    5.117461   -3.766744
 C         -1.461787    4.037743   -3.713605
 C         -1.217658    3.355152   -2.521535
 H         -3.264255    5.131744   -0.481931
 H         -3.699750    6.313937   -2.583953
 H         -0.949553    3.720639   -4.619144
 H         -0.524440    2.520304   -2.527152
 C         -1.685653    3.813912    1.238476
 C         -1.018351    5.048625    1.248202
 C         -0.949740    5.816942    2.408162
 C         -1.545545    5.388127    3.602692
 C         -2.203892    4.153759    3.590716
 C         -2.272102    3.377981    2.432129
 H         -0.556679    5.422057    0.339101
 H         -0.425285    6.769547    2.382823
 H         -2.673288    3.787930    4.500952
 H         -2.786167    2.422566    2.469155
 C          2.929661   -1.634491   -1.200523
 C          2.273640   -2.874958   -1.195931
 C          2.199645   -3.650652   -2.350855
 C          2.779265   -3.223648   -3.553728
 C          3.426891   -1.983415   -3.555779
 C          3.500136   -1.200404   -2.402622
 H          1.825633   -3.247205   -0.279517
 H          1.684401   -4.607947   -2.314563
 H          3.884549   -1.619408   -4.472728
 H          4.006486   -0.241292   -2.449521
 C          3.111239   -1.538679    1.367808
 C          4.035785   -2.593009    1.424044
 C          4.284562   -3.265635    2.618631
 C          3.622754   -2.915065    3.803280
 C          2.709189   -1.856614    3.745435
 C          2.457900   -1.177538    2.552222
 H          4.561492   -2.902103    0.525872
 H          5.008651   -4.077041    2.627836
 H          2.183346   -1.552828    4.647774
 H          1.745839   -0.358733    2.554516
 C         -2.589741    5.875081   -5.051257
 H         -1.923662    6.744833   -5.127851
 H         -2.404595    5.245360   -5.927467
 C         -1.498722    6.241928    4.847612
 H         -1.645694    5.640986    5.750690
 H         -0.540918    6.765640    4.938198
 C          2.728870   -4.085453   -4.793037
 H          1.784144   -4.635735   -4.860204
 H          2.839916   -3.485869   -5.702242
 C          3.872948   -3.668350    5.088221
 H          3.599093   -3.069663    5.962812
 H          3.283148   -4.593876    5.126945
 H         -3.617449    6.248737   -5.110410
 H         -2.285573    7.007696    4.832431
 H          3.536961   -4.828953   -4.791226
 H          4.926150   -3.953073    5.186044
 C         13.076792   -5.811946   -0.106176
 H         12.412701   -6.359841    0.571002
 H         12.926606   -6.227293   -1.111321
 H         14.111028   -6.017978    0.184892
 C        -12.570795   -7.163729    0.046611
 H        -12.376156   -7.550808   -0.962178
 H        -11.815647   -7.599566    0.709700
 H        -13.553661   -7.530456    0.357025
 S         -7.097288   -1.070646    0.010803
 C         -7.969248    1.430908    0.010768
 H         -8.647012    2.276838    0.012899
 C         -8.449180    0.095294    0.016936
       135
S1: Total Energy = -5360.30928118
 C         -6.590442    1.508022    0.000862
 C         -5.953423    0.246489   -0.000877
 C         -4.560277    0.360031   -0.007372
 C         -4.111418    1.708782   -0.011118
 C         -2.721359    1.815462    0.000055
 C         -2.103946    0.553386    0.002114
 C         -0.691627    0.668496    0.010486
 C         -0.381459    2.071081   -0.010488
 C          0.925836    2.498350    0.002999
 S         -5.450309    2.853062   -0.010503
 S         -3.228972   -0.786232   -0.004750
 C         -1.670567    2.925485   -0.025069
 H          1.176630    3.554325   -0.006026
 C          7.866809    0.712272   -0.017093
 C          7.197482    1.954616   -0.006286
 C          5.815079    1.821141    0.016167
 C          5.367446    0.476273    0.025098
 C          3.972433    0.371962    0.029067
 C          3.357446    1.632722    0.031428
 C          1.942924    1.516695    0.030094
 C          1.632924    0.114304    0.052574
 C          0.326310   -0.313402    0.038673
 S          6.709599   -0.642196    0.008058
 S          4.480573    2.973618    0.027220
 C          2.922615   -0.738463    0.065285
 H          7.737192    2.894533   -0.017309
 H          0.076085   -1.369582    0.046388
 C         -9.850118   -0.155945    0.024686
 C        -10.619028   -1.307747    0.033109
 C        -10.097385   -2.695960    0.028273
 O         -8.920532   -3.047943    0.018325
 C        -11.269026   -3.596666    0.037142
 C        -11.280367   -4.980792    0.038135
 C        -12.513272   -5.654908    0.049918
 C        -13.687242   -4.884254    0.066313
 C        -13.676360   -3.484849    0.065678
 C        -12.445459   -2.820715    0.049813
 C        -12.077274   -1.385615    0.047287
 C        -12.994186   -0.333941    0.057047
 C        -14.407057   -0.525080    0.069159
 N        -15.569516   -0.624882    0.079089
 C        -12.645566    1.048089    0.056412
 N        -12.414915    2.192379    0.056719
 H        -10.399941    0.778106    0.027505
 H        -10.341160   -5.527802    0.031196
 H        -14.647287   -5.393925    0.081234
 H        -14.618010   -2.953021    0.080168
 C          9.285755    0.676654   -0.047441
 C         10.224253   -0.341512   -0.067640
 C          9.927747   -1.795066   -0.046982
 O          8.822311   -2.328707   -0.015794
 C         11.227167   -2.499479   -0.070035
 C         11.456710   -3.864486   -0.058675
 C         12.780244   -4.335862   -0.082241
 C         13.818043   -3.389970   -0.110584
 C         13.586490   -2.009963   -0.122374
 C         12.266283   -1.548242   -0.102914
 C         11.676376   -0.188980   -0.107140
 C         12.415843    0.993109   -0.148991
 C         13.840877    1.026232   -0.186014
 N         15.004127    1.110508   -0.217153
 C         11.854457    2.303285   -0.164363
 N         11.447192    3.397064   -0.179567
 H          9.684751    1.684354   -0.058039
 H         10.615577   -4.552344   -0.030572
 H         14.846426   -3.742047   -0.122754
 H         14.432450   -1.336453   -0.142891
 C         -1.853446    3.726815   -1.333941
 C         -2.751701    4.803343   -1.386367
 C         -2.993418    5.477944   -2.581851
 C         -2.350759    5.106675   -3.770329
 C         -1.463658    4.025021   -3.716131
 C         -1.219624    3.344516   -2.522981
 H         -3.259632    5.130422   -0.484292
 H         -3.695262    6.308702   -2.588471
 H         -0.953591    3.704635   -4.621685
 H         -0.528921    2.507517   -2.528044
 C         -1.684252    3.810353    1.238382
 C         -1.020311    5.046860    1.247543
 C         -0.952553    5.814682    2.407842
 C         -1.545899    5.383580    3.602846
 C         -2.200767    4.147268    3.591237
 C         -2.267901    3.371749    2.432540
 H         -0.560884    5.422105    0.338055
 H         -0.430827    6.768742    2.382432
 H         -2.668079    3.779810    4.501842
 H         -2.778905    2.414654    2.469800
 C          2.929744   -1.631848   -1.192137
 C          2.276437   -2.873720   -1.186737
 C          2.202549   -3.649060   -2.341891
 C          2.779589   -3.220267   -3.545432
 C          3.424389   -1.978480   -3.548121
 C          3.497341   -1.195651   -2.394932
 H          1.830826   -3.247460   -0.269756
 H          1.689626   -4.607558   -2.305273
 H          3.879947   -1.613238   -4.465586
 H          4.001217   -0.235218   -2.442090
 C          3.112662   -1.533456    1.377168
 C          4.034755   -2.589905    1.434131
 C          4.283813   -3.260155    2.629904
 C          3.624811   -2.905091    3.814902
 C          2.713882   -1.844323    3.756255
 C          2.462567   -1.167332    2.562006
 H          4.558335   -2.902220    0.535873
 H          5.005954   -4.073238    2.639905
 H          2.190580   -1.536951    4.658817
 H          1.753305   -0.346026    2.564011
 C         -2.589603    5.861828   -5.056105
 H         -1.924122    6.731931   -5.133737
 H         -2.403702    5.230816   -5.931179
 C         -1.500176    6.236994    4.847973
 H         -1.643936    5.635271    5.751017
 H         -0.544083    6.763982    4.937315
 C          2.729626   -4.081832   -4.784843
 H          1.787118   -4.636126   -4.849740
 H          2.835982   -3.481553   -5.694132
 C          3.875506   -3.655868    5.101097
 H          3.601565   -3.055744    5.974637
 H          3.286036   -4.581531    5.141375
 H         -3.617543    6.234666   -5.116029
 H         -2.289718    6.999987    4.833931
 H          3.540933   -4.821802   -4.785092
 H          4.928807   -3.940088    5.199149
 C         13.073403   -5.815448   -0.094324
 H         12.442222   -6.351937    0.622736
 H         12.873529   -6.246512   -1.084107
 H         14.120063   -6.019192    0.150012
 C        -12.569984   -7.162062    0.027647
 H        -12.342423   -7.548155   -0.974672
 H        -11.835577   -7.598112    0.713872
 H        -13.561536   -7.530531    0.306691
 S         -7.102577   -1.066940    0.007042
 C         -7.979203    1.426709    0.008005
 H         -8.655321    2.273982    0.010567
 C         -8.453543    0.098539    0.013469
