       114
S0: Total Energy = -6090.35568894
 C         -7.173762    1.151991    0.001775
 C         -6.268882    2.227204    0.005416
 C         -4.938680    1.813244   -0.000402
 C         -4.782920    0.410936   -0.011300
 C         -3.427795    0.021273   -0.026324
 C         -2.577842    1.113759   -0.012437
 C         -1.193639    0.696998   -0.000305
 C         -1.189805   -0.722711    0.006644
 C         -0.000541   -1.432303    0.000957
 S         -6.313816   -0.409876   -0.008948
 S         -3.391976    2.656105    0.005924
 C         -2.632543   -1.287697   -0.005751
 H         -6.602850    3.258685    0.014564
 H          0.005806   -2.518067   -0.005364
 C          7.173762   -1.152002   -0.001788
 C          6.268883   -2.227216   -0.005435
 C          4.938681   -1.813256    0.000381
 C          4.782921   -0.410947    0.011280
 C          3.427795   -0.021285    0.026303
 C          2.577843   -1.113771    0.012415
 C          1.193640   -0.697010    0.000283
 C          1.189806    0.722699   -0.006665
 C          0.000542    1.432291   -0.000979
 S          6.313817    0.409864    0.008925
 S          3.391977   -2.656117   -0.005947
 C          2.632544    1.287685    0.005730
 H          6.602851   -3.258697   -0.014581
 H         -0.005805    2.518055    0.005342
 C         -8.569548    1.409187    0.012978
 C         -9.696129    0.611917    0.015502
 C         -9.710386   -0.869278   -0.000481
 O         -8.743732   -1.625137   -0.011119
 C        -11.129519   -1.284447   -0.002272
 C        -11.641089   -2.574738   -0.017619
 C        -13.028940   -2.731292   -0.016894
 C        -13.861892   -1.605736   -0.000941
 C        -13.341364   -0.307347    0.014823
 C        -11.951415   -0.142199    0.014161
 C        -11.088933    1.068841    0.028985
 C        -11.565782    2.370029    0.054491
 C        -12.954759    2.703988    0.064468
 N        -14.071468    3.037119    0.073335
 C        -10.741117    3.536090    0.076061
 N        -10.114767    4.519129    0.094664
 H         -8.750067    2.478274    0.020473
 H        -10.968235   -3.426653   -0.029931
 H        -13.465738   -3.725408   -0.028824
 H        -14.939731   -1.738380   -0.000774
 H        -14.021792    0.532886    0.026634
 C          8.569549   -1.409195   -0.012982
 C          9.696124   -0.611916   -0.015496
 C          9.710362    0.869279    0.000486
 O          8.743698    1.625124    0.011165
 C         11.129490    1.284464    0.002329
 C         11.641045    2.574761    0.017721
 C         13.028894    2.731330    0.017029
 C         13.861860    1.605784    0.001065
 C         13.341347    0.307390   -0.014741
 C         11.951400    0.142227   -0.014112
 C         11.088934   -1.068824   -0.028973
 C         11.565806   -2.370004   -0.054490
 C         12.954791   -2.703933   -0.064451
 N         14.071508   -3.037035   -0.073307
 C         10.741167   -3.536082   -0.076083
 N         10.114847   -4.519139   -0.094702
 H          8.750073   -2.478281   -0.020478
 H         10.968181    3.426668    0.030037
 H         13.465681    3.725452    0.028992
 H         14.939698    1.738442    0.000924
 H         14.021785   -0.532836   -0.026556
 C         -2.967231   -2.077215    1.257482
 C         -4.004307   -2.950279    1.459917
 C         -4.114210   -3.399054    2.811592
 C         -3.171935   -2.867226    3.649483
 S         -2.112593   -1.792606    2.762977
 H         -4.671464   -3.270365    0.667890
 H         -4.869742   -4.101849    3.148583
 C         -2.848191   -2.131179   -1.257674
 C         -2.660266   -3.477376   -1.429276
 C         -2.827278   -3.905754   -2.782045
 C         -3.136275   -2.893453   -3.649621
 S         -3.230409   -1.371074   -2.791647
 H         -2.415155   -4.148404   -0.614387
 H         -2.729615   -4.939503   -3.098793
 C          2.848192    2.131167    1.257653
 C          2.660266    3.477364    1.429254
 C          2.827278    3.905742    2.782023
 C          3.136275    2.893441    3.649600
 S          3.230410    1.371062    2.791625
 H          2.415156    4.148392    0.614366
 H          2.729615    4.939491    3.098772
 C          2.967232    2.077203   -1.257503
 C          4.004307    2.950267   -1.459938
 C          4.114211    3.399043   -2.811613
 C          3.171937    2.867213   -3.649504
 S          2.112595    1.792594   -2.762999
 H          4.671464    3.270354   -0.667911
 H          4.869744    4.101838   -3.148604
 C         -2.972865   -3.119836    5.114504
 H         -3.733575   -3.820056    5.473095
 H         -1.988258   -3.554297    5.325798
 C         -3.401065   -2.972882   -5.123704
 H         -3.283597   -4.006780   -5.462605
 H         -2.707170   -2.348533   -5.699146
 C          2.972868    3.119823   -5.114526
 H          3.733578    3.820044   -5.473116
 H          1.988260    3.554283   -5.325820
 C          3.401065    2.972870    5.123682
 H          3.283597    4.006768    5.462584
 H          2.707169    2.348521    5.699125
 H          4.418470    2.649296    5.374614
 H          3.057879    2.199095   -5.704038
 H         -3.057875   -2.199108    5.704017
 H         -4.418470   -2.649308   -5.374635
       114
T1: Total Energy = -6090.30912855
 C          7.153610    1.156205   -0.014471
 C          6.230939    2.237137   -0.026033
 C          4.915036    1.820233   -0.019386
 C          4.757558    0.404364   -0.000254
 C          3.425808    0.014357    0.013717
 C          2.546655    1.119856   -0.007875
 C          1.198031    0.704248   -0.010378
 C          1.189787   -0.735917   -0.002351
 C          0.013938   -1.440730    0.014582
 S          6.304969   -0.411447    0.003656
 S          3.365177    2.667787   -0.032914
 C          2.634516   -1.297065    0.007762
 H          6.564054    3.268386   -0.040999
 H          0.006058   -2.526151    0.032781
 C         -7.153611   -1.156210    0.014451
 C         -6.230941   -2.237142    0.026013
 C         -4.915038   -1.820239    0.019374
 C         -4.757560   -0.404369    0.000248
 C         -3.425810   -0.014362   -0.013712
 C         -2.546657   -1.119861    0.007881
 C         -1.198033   -0.704253    0.010392
 C         -1.189789    0.735912    0.002367
 C         -0.013940    1.440726   -0.014566
 S         -6.304971    0.411442   -0.003670
 S         -3.365179   -2.667793    0.032908
 C         -2.634517    1.297060   -0.007748
 H         -6.564056   -3.268392    0.040976
 H         -0.006060    2.526146   -0.032762
 C          8.540288    1.418677   -0.022907
 C          9.676485    0.615835   -0.018599
 C          9.690852   -0.866763    0.001178
 O          8.721983   -1.620681    0.012190
 C         11.108866   -1.284444    0.005398
 C         11.621048   -2.573473    0.023724
 C         13.010308   -2.729325    0.024412
 C         13.839879   -1.602790    0.006810
 C         13.316962   -0.303535   -0.011881
 C         11.928093   -0.140059   -0.012588
 C         11.060090    1.068872   -0.029958
 C         11.537284    2.377525   -0.054605
 C         12.924426    2.711008   -0.062674
 N         14.042091    3.043806   -0.070136
 C         10.715275    3.543206   -0.076334
 N         10.093129    4.529889   -0.094948
 H          8.721919    2.486875   -0.035118
 H         10.949132   -3.426228    0.037202
 H         13.448164   -3.722930    0.038680
 H         14.918158   -1.732877    0.007602
 H         13.996480    0.537471   -0.024965
 C         -8.540290   -1.418681    0.022887
 C         -9.676484   -0.615836    0.018585
 C         -9.690845    0.866763   -0.001184
 O         -8.721972    1.620676   -0.012195
 C        -11.108857    1.284450   -0.005405
 C        -11.621033    2.573481   -0.023726
 C        -13.010292    2.729339   -0.024413
 C        -13.839869    1.602808   -0.006816
 C        -13.316957    0.303550    0.011869
 C        -11.928089    0.140068    0.012576
 C        -11.060091   -1.068866    0.029940
 C        -11.537292   -2.377517    0.054577
 C        -12.924437   -2.710992    0.062645
 N        -14.042105   -3.043782    0.070105
 C        -10.715291   -3.543204    0.076297
 N        -10.093153   -4.529891    0.094905
 H         -8.721922   -2.486878    0.035094
 H        -10.949113    3.426233   -0.037200
 H        -13.448144    3.722946   -0.038677
 H        -14.918147    1.732900   -0.007607
 H        -13.996478   -0.537453    0.024950
 C          2.968328   -2.089424   -1.253506
 C          4.008843   -2.959097   -1.455713
 C          4.118305   -3.409151   -2.806228
 C          3.173217   -2.881087   -3.644078
 S          2.112104   -1.808046   -2.758880
 H          4.679053   -3.274974   -0.664685
 H          4.875301   -4.110224   -3.143173
 C          2.858916   -2.130311    1.264151
 C          2.692490   -3.478926    1.440749
 C          2.858282   -3.897563    2.796220
 C          3.144313   -2.875811    3.661006
 S          3.216669   -1.356026    2.797135
 H          2.463109   -4.157936    0.628010
 H          2.776846   -4.931249    3.117411
 C         -2.858914    2.130313   -1.264132
 C         -2.692491    3.478930   -1.440722
 C         -2.858277    3.897575   -2.796190
 C         -3.144301    2.875827   -3.660984
 S         -3.216657    1.356037   -2.797123
 H         -2.463116    4.157935   -0.627977
 H         -2.776843    4.931263   -3.117375
 C         -2.968334    2.089412    1.253524
 C         -4.008854    2.959077    1.455735
 C         -4.118317    3.409126    2.806251
 C         -3.173225    2.881066    3.644098
 S         -2.112106    1.808034    2.758896
 H         -4.679066    3.274953    0.664709
 H         -4.875317    4.110193    3.143199
 C          2.972368   -3.137661   -5.108026
 H          3.736583   -3.833789   -5.466868
 H          1.989967   -3.578613   -5.315822
 C          3.403562   -2.943772    5.136524
 H          3.299962   -3.977545    5.480035
 H          2.697975   -2.326664    5.705396
 C         -2.972375    3.137636    5.108047
 H         -3.736594    3.833759    5.466892
 H         -1.989977    3.578594    5.315844
 C         -3.403543    2.943797   -5.136504
 H         -3.299944    3.977573   -5.480008
 H         -2.697952    2.326695   -5.705376
 H         -4.414976    2.603887   -5.389630
 H         -3.050309    2.217329    5.699057
 H          3.050308   -2.217356   -5.699039
 H          4.414997   -2.603863    5.389644
       114
S1: Total Energy = -6090.29169009
 C          7.157681    1.155655    0.001177
 C          6.243260    2.232246    0.000821
 C          4.919781    1.813665    0.002644
 C          4.764643    0.404152    0.006434
 C          3.424139    0.014210    0.015757
 C          2.553700    1.116908    0.006513
 C          1.196847    0.702618   -0.000425
 C          1.188588   -0.734374   -0.010897
 C          0.009407   -1.440064   -0.004371
 S          6.308643   -0.411271    0.003070
 S          3.372199    2.661660   -0.001797
 C          2.632226   -1.295463   -0.006069
 H          6.574782    3.264118   -0.003325
 H          0.001094   -2.525544   -0.001403
 C         -7.157681   -1.155654   -0.001173
 C         -6.243260   -2.232245   -0.000814
 C         -4.919780   -1.813664   -0.002640
 C         -4.764643   -0.404151   -0.006434
 C         -3.424139   -0.014209   -0.015759
 C         -2.553700   -1.116907   -0.006512
 C         -1.196846   -0.702617    0.000424
 C         -1.188588    0.734375    0.010895
 C         -0.009407    1.440065    0.004369
 S         -6.308642    0.411272   -0.003073
 S         -3.372199   -2.661659    0.001801
 C         -2.632226    1.295464    0.006065
 H         -6.574781   -3.264117    0.003336
 H         -0.001094    2.525545    0.001401
 C          8.552517    1.416601   -0.005876
 C          9.683147    0.615424   -0.009479
 C          9.694792   -0.868219    0.001623
 O          8.724074   -1.620048    0.007508
 C         11.111430   -1.287741    0.005304
 C         11.621234   -2.577498    0.017853
 C         13.010536   -2.736484    0.019601
 C         13.842041   -1.610809    0.008686
 C         13.322314   -0.310535   -0.004385
 C         11.932752   -0.142851   -0.006129
 C         11.071307    1.065994   -0.019115
 C         11.549826    2.376047   -0.040365
 C         12.936524    2.708359   -0.046235
 N         14.055244    3.039476   -0.051591
 C         10.728441    3.541040   -0.061527
 N         10.104134    4.527083   -0.079646
 H          8.733633    2.485137   -0.008576
 H         10.947470   -3.428914    0.026195
 H         13.446584   -3.730941    0.029535
 H         14.920130   -1.743169    0.010366
 H         14.003247    0.529430   -0.012374
 C         -8.552516   -1.416600    0.005882
 C         -9.683147   -0.615424    0.009483
 C         -9.694794    0.868219   -0.001623
 O         -8.724076    1.620048   -0.007514
 C        -11.111433    1.287739   -0.005302
 C        -11.621238    2.577496   -0.017855
 C        -13.010540    2.736481   -0.019599
 C        -13.842044    1.610805   -0.008677
 C        -13.322316    0.310531    0.004397
 C        -11.932754    0.142849    0.006138
 C        -11.071307   -1.065996    0.019125
 C        -11.549824   -2.376049    0.040381
 C        -12.936522   -2.708363    0.046256
 N        -14.055242   -3.039481    0.051616
 C        -10.728438   -3.541041    0.061538
 N        -10.104130   -4.527083    0.079652
 H         -8.733632   -2.485137    0.008588
 H        -10.947474    3.428913   -0.026202
 H        -13.446589    3.730937   -0.029536
 H        -14.920132    1.743164   -0.010355
 H        -14.003247   -0.529434    0.012391
 C          2.967885   -2.070996   -1.276562
 C          4.003625   -2.945309   -1.486037
 C          4.117725   -3.374883   -2.842202
 C          3.181029   -2.826943   -3.677565
 S          2.122893   -1.759519   -2.782563
 H          4.667316   -3.277690   -0.696356
 H          4.871835   -4.075715   -3.185843
 C          2.851077   -2.142044    1.241732
 C          2.689154   -3.493487    1.402855
 C          2.848927   -3.925400    2.754365
 C          3.126283   -2.911250    3.631618
 S          3.197063   -1.382249    2.784729
 H          2.466945   -4.164879    0.581863
 H          2.769435   -4.962556    3.064485
 C         -2.851076    2.142042   -1.241739
 C         -2.689152    3.493485   -1.402866
 C         -2.848924    3.925394   -2.754377
 C         -3.126281    2.911241   -3.631627
 S         -3.197062    1.382243   -2.784734
 H         -2.466943    4.164878   -0.581875
 H         -2.769431    4.962549   -3.064499
 C         -2.967885    2.071000    1.276555
 C         -4.003626    2.945314    1.486027
 C         -4.117726    3.374891    2.842191
 C         -3.181031    2.826953    3.677555
 S         -2.122894    1.759527    2.782557
 H         -4.667316    3.277693    0.696345
 H         -4.871835    4.075724    3.185831
 C          2.987105   -3.060038   -5.146160
 H          3.746695   -3.758274   -5.510524
 H          2.001691   -3.488040   -5.366288
 C          3.377922   -2.994315    5.107564
 H          3.278069   -4.032312    5.439096
 H          2.666031   -2.387081    5.679175
 C         -2.987107    3.060052    5.146150
 H         -3.746697    3.758289    5.510512
 H         -2.001693    3.488054    5.366277
 C         -3.377920    2.994303   -5.107573
 H         -3.278066    4.032299   -5.439108
 H         -2.666029    2.387067   -5.679183
 H         -4.386137    2.651750   -5.369645
 H         -3.077651    2.131783    5.722718
 H          3.077649   -2.131768   -5.722725
 H          4.386139   -2.651762    5.369637
