       120
S0: Total Energy = -5448.83304408
 C         -7.154928   -1.268660    0.058265
 C         -6.231534   -2.324926    0.070451
 C         -4.908051   -1.885918    0.046506
 C         -4.775656   -0.482173    0.014194
 C         -3.427302   -0.063457    0.007411
 C         -2.561220   -1.143014    0.026041
 C         -1.184270   -0.706893    0.012506
 C         -1.203946    0.712202   -0.039793
 C         -0.017879    1.428809   -0.049022
 S         -6.325211    0.307009    0.011775
 S         -3.347635   -2.700944    0.054726
 C         -2.652399    1.254233   -0.055803
 H         -6.545076   -3.362603    0.096026
 H         -0.014935    2.514006   -0.081702
 C          7.154922    1.268627   -0.058267
 C          6.231525    2.324891   -0.070470
 C          4.908042    1.885882   -0.046551
 C          4.775648    0.482137   -0.014246
 C          3.427294    0.063421   -0.007467
 C          2.561212    1.142978   -0.026097
 C          1.184262    0.706857   -0.012563
 C          1.203938   -0.712238    0.039734
 C          0.017871   -1.428845    0.048964
 S          6.325203   -0.307044   -0.011843
 S          3.347627    2.700908   -0.054781
 C          2.652391   -1.254269    0.055742
 H          6.545066    3.362569   -0.096023
 H          0.014927   -2.514043    0.081643
 C         -8.549262   -1.546824    0.080569
 C         -9.687034   -0.772767    0.075243
 C         -9.738254    0.719459    0.035410
 O         -8.794304    1.499831    0.007172
 C        -11.168030    1.050882    0.037479
 C        -13.563467    1.557953    0.043259
 C        -13.345633    0.203740    0.079326
 C        -11.949822   -0.089311    0.075864
 C        -11.069396   -1.270373    0.103396
 C        -11.539406   -2.570869    0.149682
 C        -12.937548   -2.864242    0.170020
 N        -14.072117   -3.128427    0.187150
 C        -10.714897   -3.735613    0.183421
 N        -10.079137   -4.711994    0.212707
 H         -8.716038   -2.618686    0.108342
 H        -14.517160    2.069361    0.036731
 H        -14.146778   -0.521804    0.106202
 C          8.549256    1.546805   -0.080504
 C          9.687048    0.772777   -0.075117
 C          9.738321   -0.719447   -0.035234
 O          8.794402   -1.499848   -0.006780
 C         11.168106   -1.050828   -0.037533
 C         13.563558   -1.557827   -0.043595
 C         13.345679   -0.203617   -0.079537
 C         11.949860    0.089393   -0.075894
 C         11.069393    1.270432   -0.103184
 C         11.539348    2.570952   -0.149316
 C         12.937475    2.864391   -0.169656
 N         14.072031    3.128639   -0.186780
 C         10.714784    3.735661   -0.182906
 N         10.078963    4.712007   -0.212037
 H          8.716015    2.618671   -0.108261
 H         14.517267   -2.069206   -0.037182
 H         14.146800    0.521953   -0.106407
 C         -3.019694    1.970447   -1.375523
 C         -4.161347    2.783527   -1.442804
 C         -4.558527    3.366573   -2.644971
 C         -3.833903    3.163536   -3.826704
 C         -2.701054    2.344338   -3.758169
 C         -2.299965    1.756729   -2.557626
 H         -4.744344    2.974880   -0.547035
 H         -5.449884    3.989573   -2.661845
 H         -2.118748    2.159120   -4.658083
 H         -1.418317    1.124297   -2.550955
 C         -2.856000    2.145469    1.187227
 C         -2.490959    3.500106    1.159943
 C         -2.590634    4.293315    2.301233
 C         -3.061213    3.769955    3.513330
 C         -3.418624    2.417360    3.538562
 C         -3.317566    1.617898    2.398907
 H         -2.135634    3.945981    0.235792
 H         -2.299537    5.340034    2.246784
 H         -3.784204    1.976960    4.463458
 H         -3.598663    0.571350    2.463038
 C          2.855992   -2.145500   -1.187291
 C          2.490960   -3.500140   -1.160009
 C          2.590635   -4.293345   -2.301301
 C          3.061204   -3.769979   -3.513399
 C          3.418606   -2.417382   -3.538629
 C          3.317549   -1.617923   -2.398972
 H          2.135642   -3.946019   -0.235857
 H          2.299544   -5.340067   -2.246853
 H          3.784179   -1.976977   -4.463526
 H          3.598638   -0.571374   -2.463102
 C          3.019687   -1.970489    1.375459
 C          4.161324   -2.783593    1.442727
 C          4.558504   -3.366647    2.644889
 C          3.833898   -3.163596    3.826630
 C          2.701065   -2.344376    3.758108
 C          2.299974   -1.756758    2.557569
 H          4.744306   -2.974957    0.546951
 H          5.449849   -3.989666    2.661752
 H          2.118772   -2.159147    4.658028
 H          1.418338   -1.124309    2.550909
 C         -4.247680    3.824424   -5.120427
 H         -3.828387    4.836255   -5.201637
 H         -3.898359    3.257054   -5.989303
 C         -3.202861    4.642743    4.737985
 H         -3.154619    4.051783    5.658412
 H         -2.416836    5.404451    4.780111
 C          3.202852   -4.642763   -4.738057
 H          2.416834   -5.404479   -4.780179
 H          3.154597   -4.051802   -5.658483
 C          4.247676   -3.824494    5.120348
 H          3.898377   -3.257117    5.989228
 H          3.828361   -4.836316    5.201563
 H         -5.336530    3.919541   -5.190594
 H         -4.165735    5.170811    4.739414
 H          4.165731   -5.170822   -4.739495
 H          5.336524   -3.919635    5.190502
 S         12.092558   -2.494267   -0.005506
 S        -12.092436    2.494344    0.005168
       120
T1: Total Energy = -5448.78518297
 C         -7.133176    1.274063   -0.050745
 C         -6.190809    2.336137   -0.061491
 C         -4.882811    1.894233   -0.036063
 C         -4.749203    0.475873   -0.003415
 C         -3.425263    0.057292    0.005845
 C         -2.528379    1.149950   -0.011451
 C         -1.188157    0.715105   -0.004569
 C         -1.204328   -0.725391    0.042637
 C         -0.032808   -1.438021    0.042832
 S         -6.314999   -0.308098   -0.002428
 S         -3.318579    2.714217   -0.041478
 C         -2.655047   -1.262424    0.065848
 H         -6.503394    3.373643   -0.087606
 H         -0.028926   -2.523131    0.070279
 C          7.133175   -1.274057    0.050835
 C          6.190809   -2.336132    0.061629
 C          4.882809   -1.894229    0.036235
 C          4.749200   -0.475868    0.003581
 C          3.425259   -0.057289   -0.005664
 C          2.528377   -1.149947    0.011650
 C          1.188154   -0.715100    0.004779
 C          1.204326    0.725396   -0.042426
 C          0.032806    1.438026   -0.042623
 S          6.314995    0.308104    0.002563
 S          3.318578   -2.714213    0.041674
 C          2.655046    1.262428   -0.065661
 H          6.503396   -3.373638    0.087730
 H          0.028923    2.523136   -0.070075
 C         -8.516944    1.557850   -0.076367
 C         -9.665651    0.778917   -0.074310
 C         -9.715884   -0.715960   -0.034305
 O         -8.768668   -1.492920   -0.001724
 C        -11.143662   -1.051056   -0.042885
 C        -13.538681   -1.555508   -0.059493
 C        -13.317469   -0.200479   -0.094137
 C        -11.922499    0.090324   -0.084362
 C        -11.037217    1.272332   -0.107195
 C        -11.509772    2.579354   -0.154020
 C        -12.906160    2.870608   -0.179364
 N        -14.042073    3.132556   -0.200536
 C        -10.688403    3.744046   -0.183176
 N        -10.055414    4.723385   -0.208951
 H         -8.684675    2.629028   -0.104168
 H        -14.493738   -2.064451   -0.057442
 H        -14.117177    0.526588   -0.124397
 C          8.516945   -1.557842    0.076370
 C          9.665649   -0.778905    0.074207
 C          9.715872    0.715971    0.034151
 O          8.768652    1.492922    0.001502
 C         11.143652    1.051068    0.042424
 C         13.538673    1.555523    0.058612
 C         13.317468    0.200499    0.093445
 C         11.922497   -0.090307    0.083907
 C         11.037220   -1.272314    0.106994
 C         11.509785   -2.579329    0.153907
 C         12.906177   -2.870577    0.179097
 N         14.042094   -3.132519    0.200141
 C         10.688423   -3.744020    0.183335
 N         10.055443   -4.723359    0.209336
 H          8.684680   -2.629018    0.104184
 H         14.493730    2.064468    0.056368
 H         14.117182   -0.526564    0.123673
 C         -3.020368   -1.968203    1.391742
 C         -4.159663   -2.783917    1.466760
 C         -4.554145   -3.355452    2.674998
 C         -3.829795   -3.137400    3.854582
 C         -2.700113   -2.314630    3.777856
 C         -2.301958   -1.737500    2.571380
 H         -4.742588   -2.985903    0.573445
 H         -5.443239   -3.981258    2.698747
 H         -2.118926   -2.117339    4.675793
 H         -1.423201   -1.101046    2.558958
 C         -2.868124   -2.154327   -1.174427
 C         -2.517370   -3.512512   -1.143060
 C         -2.623160   -4.306226   -2.283321
 C         -3.085646   -3.779746   -3.497302
 C         -3.427911   -2.423249   -3.526160
 C         -3.319846   -1.622806   -2.387994
 H         -2.168950   -3.960594   -0.217416
 H         -2.343862   -5.355931   -2.226473
 H         -3.786331   -1.980535   -4.452623
 H         -3.589484   -0.573369   -2.455480
 C          2.868137    2.154316    1.174623
 C          2.517234    3.512466    1.143333
 C          2.623036    4.306154    2.283609
 C          3.085680    3.779683    3.497534
 C          3.428089    2.423222    3.526319
 C          3.320014    1.622804    2.388135
 H          2.168682    3.960541    0.217735
 H          2.343618    5.355831    2.226822
 H          3.786632    1.980513    4.452737
 H          3.589767    0.573392    2.455565
 C          3.020357    1.968209   -1.391558
 C          4.159625    2.783959   -1.466578
 C          4.554097    3.355491   -2.674821
 C          3.829767    3.137398   -3.854409
 C          2.700112    2.314592   -3.777682
 C          2.301964    1.737468   -2.571201
 H          4.742536    2.985977   -0.573261
 H          5.443170    3.981328   -2.698571
 H          2.118940    2.117269   -4.675621
 H          1.423228    1.100985   -2.558777
 C         -4.241642   -3.785825    5.154968
 H         -3.821196   -4.796395    5.244849
 H         -3.891769   -3.209882    6.017862
 C         -3.234275   -4.653158   -4.720483
 H         -3.177154   -4.064671   -5.641909
 H         -2.457234   -5.424131   -4.758935
 C          3.234317    4.653069    4.720732
 H          2.457195    5.423956    4.759276
 H          3.177337    4.064545    5.642143
 C          4.241603    3.785820   -5.154799
 H          3.891756    3.209855   -6.017689
 H          3.821125    4.796375   -5.244696
 H         -5.330267   -3.881308    5.226945
 H         -4.203353   -5.169617   -4.722601
 H          4.203338    5.169634    4.722786
 H          5.330225    3.881338   -5.226769
 S         12.070900    2.494354    0.014405
 S        -12.070915   -2.494347   -0.015223
       120
S1: Total Energy = -5448.76751600
 C         -7.134049    1.272221   -0.052940
 C         -6.205300    2.330113   -0.064726
 C         -4.886636    1.887181   -0.039370
 C         -4.756796    0.477330   -0.006342
 C         -3.421986    0.058335    0.002861
 C         -2.537037    1.147247   -0.015071
 C         -1.185807    0.712231   -0.007365
 C         -1.203361   -0.723128    0.042893
 C         -0.027380   -1.436562    0.046293
 S         -6.317917   -0.306776   -0.004304
 S         -3.326407    2.707407   -0.045831
 C         -2.652493   -1.260478    0.063623
 H         -6.517542    3.367635   -0.091374
 H         -0.022754   -2.521425    0.076800
 C          7.134048   -1.272226    0.052944
 C          6.205298   -2.330116    0.064760
 C          4.886633   -1.887182    0.039456
 C          4.756793   -0.477331    0.006446
 C          3.421984   -0.058334   -0.002725
 C          2.537035   -1.147246    0.015215
 C          1.185804   -0.712230    0.007530
 C          1.203358    0.723129   -0.042724
 C          0.027377    1.436564   -0.046126
 S          6.317916    0.306774    0.004371
 S          3.326404   -2.707407    0.045956
 C          2.652491    1.260480   -0.063458
 H          6.517539   -3.367639    0.091386
 H          0.022751    2.521426   -0.076636
 C         -8.532111    1.556832   -0.078903
 C         -9.669606    0.782415   -0.075649
 C         -9.711608   -0.720713   -0.032596
 O         -8.753132   -1.485416    0.000817
 C        -11.130121   -1.058032   -0.039510
 C        -13.524775   -1.568838   -0.053800
 C        -13.310161   -0.214284   -0.091517
 C        -11.915401    0.086787   -0.083350
 C        -11.051326    1.270107   -0.109307
 C        -11.525582    2.582981   -0.159257
 C        -12.920202    2.871494   -0.185310
 N        -14.059106    3.125285   -0.207056
 C        -10.704029    3.744038   -0.190822
 N        -10.062656    4.719548   -0.218232
 H         -8.697201    2.628658   -0.108452
 H        -14.478392   -2.080824   -0.050143
 H        -14.112990    0.509493   -0.122823
 C          8.532110   -1.556840    0.078824
 C          9.669607   -0.782426    0.075499
 C          9.711610    0.720703    0.032439
 O          8.753132    1.485410   -0.000813
 C         11.130124    1.058019    0.039281
 C         13.524779    1.568820    0.053405
 C         13.310165    0.214265    0.091092
 C         11.915404   -0.086803    0.083027
 C         11.051329   -1.270121    0.109023
 C         11.525586   -2.582998    0.158918
 C         12.920207   -2.871515    0.184838
 N         14.059113   -3.125309    0.206476
 C         10.704032   -3.744052    0.190564
 N         10.062657   -4.719559    0.218041
 H          8.697201   -2.628667    0.108344
 H         14.478397    2.080804    0.049686
 H         14.112995   -0.509514    0.122309
 C         -3.020687   -1.965229    1.389124
 C         -4.155276   -2.787693    1.460048
 C         -4.552338   -3.358053    2.667937
 C         -3.835439   -3.132087    3.850689
 C         -2.710650   -2.302058    3.777788
 C         -2.310194   -1.725578    2.572006
 H         -4.732395   -2.995701    0.564406
 H         -5.437640   -3.989190    2.688926
 H         -2.135753   -2.098310    4.678248
 H         -1.436295   -1.082256    2.563027
 C         -2.860488   -2.150945   -1.178486
 C         -2.509847   -3.509169   -1.147407
 C         -2.611787   -4.300972   -2.289265
 C         -3.070127   -3.772508   -3.504075
 C         -3.412089   -2.415860   -3.532338
 C         -3.307588   -1.617055   -2.392809
 H         -2.165207   -3.958851   -0.221132
 H         -2.332985   -5.350785   -2.233099
 H         -3.767380   -1.971855   -4.459311
 H         -3.576405   -0.567349   -2.460028
 C          2.860497    2.150927    1.178663
 C          2.509919    3.509168    1.147584
 C          2.611871    4.300960    2.289448
 C          3.070160    3.772469    3.504265
 C          3.412062    2.415805    3.532528
 C          3.307550    1.617011    2.392993
 H          2.165321    3.958870    0.221303
 H          2.333118    5.350786    2.233281
 H          3.767313    1.971780    4.459506
 H          3.576320    0.567294    2.460212
 C          3.020673    1.965255   -1.388949
 C          4.155234    2.787758   -1.459853
 C          4.552287    3.358145   -2.667733
 C          3.835406    3.132168   -3.850493
 C          2.710644    2.302101   -3.777611
 C          2.310197    1.725594   -2.571838
 H          4.732339    2.995775   -0.564204
 H          5.437569    3.989312   -2.688707
 H          2.135762    2.098343   -4.678078
 H          1.436320    1.082242   -2.562875
 C         -4.250062   -3.779323    5.150603
 H         -3.823300   -4.786779    5.245290
 H         -3.908589   -3.198699    6.013673
 C         -3.214815   -4.644135   -4.728852
 H         -3.154609   -4.054450   -5.649264
 H         -2.437999   -5.415365   -4.765593
 C          3.214861    4.644083    4.729050
 H          2.438080    5.415348    4.765778
 H          3.154607    4.054395    5.649458
 C          4.250017    3.779433   -5.150396
 H          3.908573    3.198807   -6.013476
 H          3.823220    4.786875   -5.245076
 H         -5.338353   -3.881894    5.216801
 H         -4.184109   -5.160082   -4.734500
 H          4.184179    5.159985    4.734722
 H          5.338305    3.882044   -5.216583
 S         12.054317    2.506533    0.007914
 S        -12.054314   -2.506545   -0.008140
