        88
S0: Total Energy = -2834.28513101
 8         -4.431025   -5.125139    3.281595
 6         -3.545937   -4.328504    2.990812
 6         -3.773084   -3.167676    2.097442
 6         -5.044169   -2.959281    1.576347
 1         -5.837070   -3.651660    1.836209
 6         -5.247635   -1.855202    0.735862
 6         -4.187640   -0.997992    0.429635
 6         -4.490211    0.085789   -0.427831
 6         -5.810022    0.181186   -0.872926
 6         -6.185613    1.215036   -1.744727
 1         -7.199406    1.330807   -2.111546
 6         -5.214181    2.117680   -2.161394
 6         -5.598778    3.204112   -3.094049
 8         -6.745841    3.355977   -3.499711
 8         -2.409063    4.802456   -3.554337
 6         -3.236490    4.004212   -3.129644
 6         -2.878639    2.915864   -2.191003
 6         -1.563578    2.753284   -1.772689
 1         -0.809218    3.432776   -2.154284
 6         -1.198318    1.737851   -0.877695
 1         -0.155634    1.662765   -0.609552
 6         -2.136305    0.838915   -0.348730
 6         -1.828711   -0.251884    0.615593
 6         -0.580134   -0.476930    1.244810
 6         -0.402255   -1.598098    2.086311
 1          0.562656   -1.755400    2.556386
 6         -1.415389   -2.501578    2.360122
 6         -1.161399   -3.652157    3.259415
 8         -0.062772   -3.862504    3.759848
 7         -2.253797   -4.497062    3.509817
 6         -2.689765   -2.290388    1.800691
 6         -2.883082   -1.177511    0.941175
 6         -3.483239    0.988751   -0.822070
 6         -3.859833    2.018007   -1.724930
 7         -4.586047    4.078369   -3.513278
34         -6.878460   -1.265482   -0.139724
 8          4.431248    5.125253    3.281181
 6          3.546112    4.328673    2.990396
 6          3.773207    3.167794    2.097078
 6          5.044266    2.959358    1.575937
 1          5.837186    3.651743    1.835726
 6          5.247681    1.855235    0.735497
 6          4.187663    0.998020    0.429364
 6          4.490184   -0.085810   -0.428058
 6          5.809973   -0.181242   -0.873212
 6          6.185513   -1.215142   -1.744976
 1          7.199286   -1.330942   -2.111839
 6          5.214053   -2.117801   -2.161546
 6          5.598594   -3.204282   -3.094168
 8          6.745629   -3.356158   -3.499904
 8          2.408838   -4.802603   -3.554242
 6          3.236303   -4.004379   -3.129585
 6          2.878504   -2.915969   -2.190997
 6          1.563462   -2.753351   -1.772633
 1          0.809079   -3.432857   -2.154155
 6          1.198255   -1.737867   -0.877676
 1          0.155584   -1.662757   -0.609487
 6          2.136275   -0.838912   -0.348803
 6          1.828738    0.251939    0.615478
 6          0.580197    0.477020    1.244753
 6          0.402371    1.598229    2.086212
 1         -0.562512    1.755557    2.556335
 6          1.415522    2.501721    2.359918
 6          1.161589    3.652343    3.259173
 8          0.063011    3.862672    3.759722
 7          2.254005    4.497252    3.509478
 6          2.689866    2.290498    1.800426
 6          2.883132    1.177577    0.940958
 6          3.483186   -0.988786   -0.822199
 6          3.859728   -2.018095   -1.725020
 7          4.585839   -4.078564   -3.513287
34          6.878458    1.265457   -0.140139
 6         -2.057122   -5.655042    4.391521
 1         -1.016312   -5.660817    4.705251
 6         -4.994336    5.144532   -4.436862
 1         -5.768151    5.759331   -3.971717
 6          2.057399    5.655241    4.391185
 1          2.299708    6.574132    3.852699
 6          4.994070   -5.144768   -4.436849
 1          4.115392   -5.744319   -4.660947
 1          5.400109   -4.707481   -5.352083
 1          5.768029   -5.759441   -3.971781
 1          1.016566    5.661133    4.704836
 1          2.716414    5.575890    5.258905
 1         -2.716219   -5.575774    5.259184
 1         -2.299277   -6.573960    3.853009
 1         -4.115638    5.743977   -4.661167
 1         -5.400581    4.707197   -5.351981
        88
T1: Total Energy = -2834.23287570
 8         -4.133267   -5.344135    3.201511
 6         -3.283331   -4.521761    2.865723
 6         -3.602023   -3.347192    2.031003
 6         -4.941259   -3.159902    1.604526
 1         -5.686641   -3.884363    1.911265
 6         -5.227476   -2.066636    0.817790
 6         -4.196242   -1.158052    0.446620
 6         -4.569678   -0.090680   -0.369908
 6         -5.942440   -0.012978   -0.741263
 6         -6.380182    1.000268   -1.566072
 1         -7.412868    1.108686   -1.876403
 6         -5.431591    1.938758   -2.043876
 6         -5.893279    3.017243   -2.938539
 8         -7.071561    3.145254   -3.266876
 8         -2.767060    4.674903   -3.594934
 6         -3.555651    3.858424   -3.121976
 6         -3.123258    2.777624   -2.221425
 6         -1.759076    2.627424   -1.895849
 1         -1.048540    3.314768   -2.341319
 6         -1.323509    1.629679   -1.048020
 1         -0.262880    1.544477   -0.865498
 6         -2.233281    0.699509   -0.434778
 6         -1.857517   -0.353488    0.483826
 6         -0.531362   -0.553862    1.051203
 6         -0.267517   -1.691098    1.811197
 1          0.723535   -1.835166    2.227636
 6         -1.246692   -2.642873    2.125324
 6         -0.899721   -3.804855    2.961645
 8          0.243598   -4.006819    3.365828
 7         -1.952718   -4.679002    3.274603
 6         -2.572119   -2.441271    1.681114
 6         -2.858574   -1.309311    0.868253
 6         -3.607233    0.828691   -0.825190
 6         -4.057859    1.859029   -1.697966
 7         -4.928302    3.912313   -3.416178
34         -6.937764   -1.497604    0.051847
 8          4.000385    5.365413    3.255965
 6          3.177002    4.524870    2.912662
 6          3.526902    3.356210    2.070545
 6          4.844751    3.194858    1.656946
 1          5.583031    3.927879    1.962563
 6          5.163035    2.085854    0.860106
 6          4.168737    1.176159    0.490730
 6          4.582503    0.093969   -0.320581
 6          5.935592    0.050538   -0.663086
 6          6.417731   -0.973214   -1.493483
 1          7.460511   -1.051600   -1.780093
 6          5.517004   -1.913734   -1.980057
 6          6.013815   -2.985640   -2.875676
 8          7.195061   -3.098284   -3.184424
 8          2.927753   -4.686750   -3.599561
 6          3.690246   -3.863271   -3.106953
 6          3.219589   -2.789507   -2.202140
 6          1.867221   -2.664040   -1.903762
 1          1.168871   -3.359514   -2.356451
 6          1.396753   -1.665352   -1.040906
 1          0.331607   -1.616096   -0.868274
 6          2.261342   -0.749583   -0.421531
 6          1.841544    0.322725    0.517608
 6          0.543266    0.484996    1.064026
 6          0.241493    1.629149    1.840053
 1         -0.760985    1.748224    2.236833
 6          1.185435    2.589961    2.159056
 6          0.808084    3.750952    3.000133
 8         -0.336774    3.924837    3.400885
 7          1.839351    4.648759    3.316792
 6          2.511037    2.424892    1.711495
 6          2.822117    1.304906    0.897262
 6          3.645922   -0.850301   -0.785035
 6          4.129289   -1.863470   -1.654132
 7          5.069079   -3.892684   -3.375747
34          6.881308    1.553719    0.123706
 6         -1.664954   -5.856657    4.102980
 1         -0.602374   -5.849380    4.332734
 6         -5.414441    4.976349   -4.303211
 1         -6.168069    5.573384   -3.784721
 6          1.521006    5.817885    4.146973
 1          1.773408    6.733016    3.606808
 6          5.588113   -4.943910   -4.260067
 1          4.750986   -5.569989   -4.558376
 1          6.057552   -4.492165   -5.137103
 1          6.337967   -5.535157   -3.729667
 1          0.457315    5.788120    4.369226
 1          2.104084    5.786180    5.070322
 1         -2.254059   -5.815911    5.022194
 1         -1.932290   -6.765020    3.558372
 1         -4.562662    5.593339   -4.578304
 1         -5.870556    4.537613   -5.193884
        88
S1: Total Energy = -2834.20927432
 8         -3.803158   -5.534789    3.165642
 6         -3.012454   -4.669868    2.786288
 6         -3.413614   -3.502293    1.989089
 6         -4.768897   -3.344259    1.639029
 1         -5.478928   -4.092219    1.973356
 6         -5.135159   -2.241343    0.881944
 6         -4.165874   -1.307243    0.468717
 6         -4.620361   -0.226392   -0.309366
 6         -6.000039   -0.179141   -0.592312
 6         -6.516698    0.840223   -1.382418
 1         -7.570995    0.921834   -1.622198
 6         -5.634096    1.798583   -1.909787
 6         -6.169030    2.869262   -2.763382
 8         -7.367345    2.994637   -3.022027
 8         -3.115710    4.585392   -3.631841
 6         -3.850717    3.749585   -3.101144
 6         -3.346323    2.677900   -2.236364
 6         -1.968949    2.535949   -2.010947
 1         -1.296332    3.225920   -2.509574
 6         -1.460926    1.534037   -1.194821
 1         -0.386138    1.449546   -1.108311
 6         -2.309455    0.617304   -0.517421
 6         -1.858019   -0.427787    0.396063
 6         -0.516734   -0.575794    0.898468
 6         -0.159415   -1.719528    1.627350
 1          0.854542   -1.825889    1.998641
 6         -1.074628   -2.713897    1.970341
 6         -0.642207   -3.868254    2.764455
 8          0.528636   -4.044330    3.110639
 7         -1.650326   -4.782755    3.116835
 6         -2.430797   -2.558134    1.597557
 6         -2.800942   -1.425667    0.814060
 6         -3.710506    0.722380   -0.815104
 6         -4.234688    1.746509   -1.654686
 7         -5.244199    3.780523   -3.299681
34         -6.899714   -1.703973    0.230621
 8          3.729333    5.479384    3.228234
 6          2.931242    4.632570    2.849076
 6          3.356611    3.452766    2.046533
 6          4.714045    3.320687    1.718517
 1          5.409899    4.076506    2.063699
 6          5.101408    2.223211    0.955648
 6          4.142191    1.283252    0.534209
 6          4.616532    0.224713   -0.255362
 6          5.999329    0.217951   -0.534819
 6          6.538273   -0.780490   -1.349108
 1          7.593426   -0.835854   -1.591576
 6          5.674342   -1.736553   -1.888761
 6          6.240714   -2.788135   -2.776627
 8          7.438660   -2.856469   -3.020175
 8          3.234074   -4.539411   -3.664099
 6          3.959559   -3.711825   -3.129963
 6          3.417927   -2.660747   -2.231788
 6          2.041975   -2.576806   -1.996793
 1          1.386694   -3.283292   -2.493513
 6          1.507822   -1.612767   -1.145078
 1          0.436916   -1.593598   -1.008726
 6          2.326074   -0.669834   -0.470669
 6          1.841182    0.378680    0.435819
 6          0.491373    0.512337    0.912546
 6          0.119066    1.682450    1.617895
 1         -0.909435    1.790655    1.942226
 6          1.028467    2.657407    1.984563
 6          0.579467    3.828824    2.785087
 8         -0.590958    3.985344    3.099685
 7          1.573233    4.745577    3.159470
 6          2.390775    2.503203    1.638603
 6          2.774308    1.380176    0.864467
 6          3.726639   -0.732120   -0.773557
 6          4.274386   -1.721976   -1.628668
 7          5.347864   -3.707218   -3.334390
34          6.872410    1.730553    0.306826
 6         -1.278314   -5.959390    3.908484
 1         -0.203152   -5.925961    4.066747
 6         -5.803348    4.837239   -4.148144
 1         -6.522774    5.430287   -3.578004
 6          1.182933    5.922657    3.950351
 1          1.465042    6.832246    3.416311
 6          5.933833   -4.734107   -4.208945
 1          5.127371   -5.374703   -4.556415
 1          6.432242   -4.256203   -5.055132
 1          6.669686   -5.315439   -3.649566
 1          0.106292    5.884315    4.094423
 1          1.696906    5.905785    4.913912
 1         -1.804699   -5.946780    4.866303
 1         -1.559760   -6.869798    3.373957
 1         -4.979460    5.460640   -4.487057
 1         -6.322998    4.394305   -5.001550
