       126
S0: Total Energy = -5527.47844471
 C          7.129612    1.393776    0.042862
 C          6.184800    2.434676    0.051192
 C          4.871782    1.972264    0.029319
 C          4.765222    0.564421    0.002504
 C          3.425274    0.122502   -0.001043
 C          2.539767    1.187334    0.014391
 C          1.171512    0.727068    0.005875
 C          1.216053   -0.692091   -0.039473
 C          0.042727   -1.428952   -0.041995
 S          6.327896   -0.197907    0.001864
 S          3.296761    2.759577    0.035949
 C          2.673517   -1.208863   -0.056728
 H          6.480594    3.477583    0.073181
 H          0.058068   -2.514206   -0.068919
 C         -7.129625   -1.393823   -0.042901
 C         -6.184818   -2.434728   -0.051298
 C         -4.871798   -1.972318   -0.029527
 C         -4.765233   -0.564475   -0.002741
 C         -3.425285   -0.122559    0.000748
 C         -2.539779   -1.187389   -0.014695
 C         -1.171526   -0.727118   -0.006195
 C         -1.216067    0.692044    0.039150
 C         -0.042740    1.428904    0.041675
 S         -6.327903    0.197859   -0.002062
 S         -3.296776   -2.759632   -0.036234
 C         -2.673537    1.208809    0.056394
 H         -6.480618   -3.477634   -0.073233
 H         -0.058079    2.514157    0.068601
 C          8.513929    1.701492    0.066873
 C          9.672697    0.950203    0.066528
 C          9.747577   -0.538783    0.028919
 O          8.800276   -1.320330   -0.003019
 C         11.180244   -0.875689    0.037984
 C         11.913774   -2.029170    0.017052
 C         13.297469    0.103973    0.094113
 C         11.946722    0.335026    0.081101
 C         11.037716    1.488895    0.100208
 C         11.469571    2.806718    0.144109
 C         12.860078    3.124610    0.171085
 N         13.994400    3.392220    0.193179
 C         10.616137    3.948110    0.168024
 N          9.949413    4.904603    0.189188
 H          8.657373    2.776733    0.092428
 H         14.123004    0.799566    0.124584
 C         -8.513946   -1.701525   -0.066720
 C         -9.672690   -0.950201   -0.066243
 C         -9.747491    0.538788   -0.028661
 O         -8.800147    1.320284    0.003212
 C        -11.180142    0.875767   -0.037694
 C        -11.913613    2.029282   -0.016654
 C        -13.297423   -0.103804   -0.093280
 C        -11.946683   -0.334916   -0.080587
 C        -11.037741   -1.488833   -0.099672
 C        -11.469682   -2.806636   -0.143361
 C        -12.860214   -3.124438   -0.170116
 N        -13.994558   -3.391969   -0.192029
 C        -10.616332   -3.948089   -0.167275
 N         -9.949699   -4.904646   -0.188437
 H         -8.657414   -2.776763   -0.092210
 H        -14.122996   -0.799367   -0.123432
 C          3.049937   -1.924147   -1.374415
 C          4.207118   -2.715129   -1.441397
 C          4.611493   -3.296463   -2.641831
 C          3.878982   -3.113841   -3.822156
 C          2.730534   -2.316851   -3.753855
 C          2.322122   -1.730769   -2.554922
 H          4.796674   -2.890377   -0.546626
 H          5.514852   -3.901936   -2.658669
 H          2.141575   -2.147902   -4.652601
 H          1.428238   -1.115755   -2.548720
 C          2.895767   -2.090982    1.189698
 C          2.555823   -3.452178    1.168608
 C          2.671958   -4.238481    2.313182
 C          3.134728   -3.701336    3.522209
 C          3.467231   -2.342247    3.541116
 C          3.349514   -1.549692    2.398324
 H          2.207438   -3.908585    0.246955
 H          2.400062   -5.290583    2.263709
 H          3.826110   -1.891215    4.463493
 H          3.611372   -0.497883    2.457760
 C         -2.895791    2.090892   -1.190060
 C         -2.555938    3.452114   -1.168967
 C         -2.672074    4.238401   -2.313550
 C         -3.134752    3.701215   -3.522595
 C         -3.467164    2.342106   -3.541506
 C         -3.349449    1.549566   -2.398701
 H         -2.207628    3.908551   -0.247300
 H         -2.400251    5.290521   -2.264072
 H         -3.825971    1.891040   -4.463895
 H         -3.611235    0.497740   -2.458147
 C         -3.049959    1.924128    1.374057
 C         -4.207185    2.715035    1.441061
 C         -4.611540    3.296390    2.641495
 C         -3.878961    3.113862    3.821790
 C         -2.730463    2.316942    3.753466
 C         -2.322073    1.730841    2.554539
 H         -4.796801    2.890203    0.546313
 H         -5.514937    3.901806    2.658351
 H         -2.141453    2.148068    4.652193
 H         -1.428147    1.115887    2.548311
 C          4.301846   -3.773119   -5.113727
 H          3.919215   -4.800465   -5.179282
 H          3.922241   -3.228224   -5.984192
 C          3.294426   -4.565821    4.750500
 H          3.228824   -3.972835    5.668549
 H          2.527516   -5.346678    4.793245
 C         -3.294448    4.565681   -4.750900
 H         -2.527581    5.346582   -4.793619
 H         -3.228773    3.972691   -5.668942
 C         -4.301805    3.773164    5.113355
 H         -3.922113    3.228334    5.983823
 H         -3.919246    4.800541    5.178846
 H          5.392634   -3.829184   -5.195746
 H          4.270215   -5.069590    4.756713
 H         -4.270266    5.069394   -4.757158
 H         -5.392592    3.829152    5.195431
 S        -13.617326    1.605334   -0.052113
 S         13.617462   -1.605140    0.052552
 C         11.440852   -3.448054   -0.029003
 H         11.789970   -4.016098    0.841036
 H         10.348582   -3.458486   -0.037816
 H         11.803463   -3.962749   -0.926437
 C        -11.440617    3.448148    0.029223
 H        -10.348352    3.458502    0.038765
 H        -11.789067    4.015868   -0.841303
 H        -11.803831    3.963232    0.926180
       126
T1: Total Energy = -5527.43316361
 C          7.109320   -1.398063   -0.036952
 C          6.147308   -2.443942   -0.044235
 C          4.848023   -1.978786   -0.021072
 C          4.740324   -0.558153    0.006446
 C          3.423267   -0.116883    0.012415
 C          2.508594   -1.193543   -0.002078
 C          1.174938   -0.734900    0.000868
 C          1.216590    0.704276    0.041898
 C          0.056929    1.437185    0.036561
 S          6.319533    0.198634    0.006184
 S          3.269973   -2.771006   -0.025505
 C          2.676046    1.216208    0.065813
 H          6.442167   -3.486639   -0.066909
 H          0.071551    2.522340    0.059069
 C         -7.109319    1.398063    0.036925
 C         -6.147305    2.443940    0.044221
 C         -4.848020    1.978780    0.021125
 C         -4.740322    0.558146   -0.006358
 C         -3.423266    0.116874   -0.012285
 C         -2.508592    1.193533    0.002213
 C         -1.174937    0.734888   -0.000703
 C         -1.216589   -0.704288   -0.041727
 C         -0.056928   -1.437197   -0.036391
 S         -6.319534   -0.198637   -0.006134
 S         -3.269969    2.770998    0.025599
 C         -2.676045   -1.216219   -0.065649
 H         -6.442163    3.486638    0.066848
 H         -0.071550   -2.522352   -0.058907
 C          8.485097   -1.710663   -0.063691
 C          9.652887   -0.953753   -0.065961
 C          9.728194    0.535828   -0.027546
 O          8.778947    1.316331    0.008414
 C         11.159542    0.874663   -0.041344
 C         11.892845    2.027859   -0.022375
 C         13.273942   -0.107452   -0.104471
 C         11.924581   -0.337063   -0.087307
 C         11.009767   -1.487684   -0.103664
 C         11.440639   -2.812842   -0.149237
 C         12.829180   -3.131611   -0.180093
 N         13.963610   -3.401617   -0.205387
 C         10.589628   -3.953971   -0.171034
 N          9.927172   -4.914388   -0.190760
 H          8.629558   -2.785062   -0.089301
 H         14.098959   -0.803450   -0.137803
 C         -8.485096    1.710668    0.063576
 C         -9.652888    0.953761    0.065809
 C         -9.728197   -0.535821    0.027468
 O         -8.778949   -1.316328   -0.008413
 C        -11.159546   -0.874653    0.041220
 C        -11.892850   -2.027848    0.022254
 C        -13.273948    0.107471    0.104132
 C        -11.924585    0.337078    0.087061
 C        -11.009770    1.487698    0.103400
 C        -11.440640    2.812862    0.148866
 C        -12.829181    3.131637    0.179643
 N        -13.963610    3.401652    0.204872
 C        -10.589627    3.953990    0.170622
 N         -9.927166    4.914403    0.190314
 H         -8.629555    2.785068    0.089134
 H        -14.098965    0.803474    0.137356
 C          3.050890    1.920625    1.389766
 C          4.205079    2.715257    1.464094
 C          4.606938    3.284713    2.670752
 C          3.875535    3.085568    3.849426
 C          2.730848    2.283896    3.773315
 C          2.325162    1.708734    2.568339
 H          4.793980    2.902176    0.571416
 H          5.507538    3.893867    2.694166
 H          2.143689    2.101628    4.670504
 H          1.434677    1.088772    2.556620
 C          2.906782    2.099228   -1.177740
 C          2.581135    3.463733   -1.152023
 C          2.702614    4.250726   -2.295431
 C          3.156421    3.710923   -3.506807
 C          3.473728    2.348223   -3.529900
 C          3.349837    1.554527   -2.388704
 H          2.240308    3.922014   -0.228541
 H          2.442567    5.305586   -2.243112
 H          3.824799    1.895223   -4.454189
 H          3.600226    0.500064   -2.451943
 C         -2.906795   -2.099215    1.177919
 C         -2.581124   -3.463715    1.152241
 C         -2.702615   -4.250683    2.295665
 C         -3.156461   -3.710859    3.507017
 C         -3.473791   -2.348164    3.530071
 C         -3.349888   -1.554493    2.388859
 H         -2.240266   -3.922011    0.228778
 H         -2.442549   -5.305540    2.243377
 H         -3.824892   -1.895149    4.454340
 H         -3.600297   -0.500032    2.452068
 C         -3.050875   -1.920660   -1.389593
 C         -4.205065   -2.715291   -1.463919
 C         -4.606911   -3.284769   -2.670570
 C         -3.875493   -3.085651   -3.849240
 C         -2.730805   -2.283981   -3.773131
 C         -2.325131   -1.708796   -2.568161
 H         -4.793978   -2.902190   -0.571245
 H         -5.507513   -3.893922   -2.693982
 H         -2.143635   -2.101733   -4.670316
 H         -1.434645   -1.088836   -2.556444
 C          4.296620    3.731876    5.147860
 H          3.910629    4.757195    5.223897
 H          3.918735    3.176580    6.012388
 C          3.322212    4.576234   -4.733504
 H          3.247709    3.986125   -5.652649
 H          2.564133    5.365796   -4.772162
 C         -3.322265   -4.576144    4.733730
 H         -2.564168   -5.365685    4.772430
 H         -3.247804   -3.986011    5.652864
 C         -4.296565   -3.731985   -5.147666
 H         -3.918661   -3.176711   -6.012200
 H         -3.910582   -4.757309   -5.223674
 H          5.387181    3.790542    5.230032
 H          4.303669    5.068717   -4.740644
 H         -4.303710   -5.068653    4.740854
 H         -5.387125   -3.790642   -5.229853
 S        -13.597662   -1.605250    0.063221
 S         13.597655    1.605269   -0.063513
 C         11.419637    3.446589    0.025460
 H         11.765876    4.014934   -0.845643
 H         10.327382    3.457440    0.038063
 H         11.785513    3.961498    0.921541
 C        -11.419642   -3.446583   -0.025411
 H        -10.327391   -3.457422   -0.038427
 H        -11.765519   -4.014696    0.845991
 H        -11.785874   -3.961742   -0.921199
       126
S1: Total Energy = -5527.41532968
 C          7.113028   -1.397295   -0.036272
 C          6.159569   -2.439525   -0.042319
 C          4.852707   -1.972948   -0.020073
 C          4.747040   -0.558602    0.004653
 C          3.421322   -0.117188    0.009486
 C          2.515460   -1.191161   -0.002838
 C          1.173791   -0.733232   -0.000212
 C          1.215682    0.702935    0.039588
 C          0.052847    1.436560    0.035505
 S          6.322509    0.198559    0.004039
 S          3.276973   -2.765615   -0.023394
 C          2.674170    1.215110    0.059837
 H          6.453157   -3.482633   -0.063347
 H          0.067078    2.521639    0.057686
 C         -7.113019    1.397297    0.036280
 C         -6.159556    2.439524    0.042304
 C         -4.852696    1.972943    0.020032
 C         -4.747033    0.558596   -0.004695
 C         -3.421315    0.117179   -0.009547
 C         -2.515452    1.191151    0.002764
 C         -1.173783    0.733221    0.000127
 C         -1.215676   -0.702946   -0.039670
 C         -0.052840   -1.436571   -0.035591
 S         -6.322505   -0.198559   -0.004046
 S         -3.276961    2.765606    0.023327
 C         -2.674164   -1.215120   -0.059910
 H         -6.453140    3.482633    0.063336
 H         -0.067071   -2.521650   -0.057770
 C          8.496910   -1.708648   -0.063029
 C          9.659172   -0.953100   -0.065181
 C          9.732926    0.537095   -0.024595
 O          8.782407    1.316351    0.012147
 C         11.163303    0.876989   -0.036981
 C         11.894616    2.031356   -0.015111
 C         13.280256   -0.101621   -0.100777
 C         11.930517   -0.334452   -0.084997
 C         11.020790   -1.485594   -0.103997
 C         11.451987   -2.811174   -0.152787
 C         12.840129   -3.129834   -0.184917
 N         13.974868   -3.399982   -0.211340
 C         10.600975   -3.951601   -0.176952
 N          9.937036   -4.911485   -0.198481
 H          8.640691   -2.783257   -0.088990
 H         14.106401   -0.796209   -0.134876
 C         -8.496899    1.708658    0.063070
 C         -9.659167    0.953120    0.065253
 C         -9.732939   -0.537075    0.024671
 O         -8.782430   -1.316341   -0.012110
 C        -11.163319   -0.876952    0.037093
 C        -11.894646   -2.031310    0.015203
 C        -13.280260    0.101683    0.100885
 C        -11.930518    0.334498    0.085115
 C        -11.020778    1.485629    0.104102
 C        -11.451957    2.811215    0.152910
 C        -12.840094    3.129892    0.185078
 N        -13.974828    3.400056    0.211532
 C        -10.600929    3.951630    0.177054
 N         -9.936974    4.911503    0.198577
 H         -8.640671    2.783269    0.089032
 H        -14.106398    0.796281    0.134976
 C          3.051353    1.922563    1.381070
 C          4.201667    2.723292    1.449960
 C          4.605246    3.295562    2.654626
 C          3.879555    3.093356    3.836463
 C          2.739004    2.285140    3.765765
 C          2.331877    1.706738    2.563024
 H          4.786106    2.912432    0.554865
 H          5.502685    3.909439    2.674105
 H          2.156732    2.100115    4.665523
 H          1.445439    1.080825    2.555681
 C          2.899832    2.093292   -1.187910
 C          2.575966    3.458309   -1.166676
 C          2.693553    4.239824   -2.314192
 C          3.141569    3.693852   -3.525069
 C          3.457039    2.330580   -3.543491
 C          3.336752    1.542228   -2.398347
 H          2.239825    3.921268   -0.243813
 H          2.435128    5.295238   -2.265657
 H          3.803591    1.873041   -4.467208
 H          3.585084    0.487025   -2.457716
 C         -2.899818   -2.093310    1.187832
 C         -2.576085   -3.458358    1.166536
 C         -2.693669   -4.239895    2.314038
 C         -3.141550   -3.693915    3.524961
 C         -3.456891   -2.330614    3.543443
 C         -3.336608   -1.542240    2.398313
 H         -2.240055   -3.921323    0.243635
 H         -2.435350   -5.295332    2.265454
 H         -3.803339   -1.873068    4.467197
 H         -3.584837   -0.487016    2.457729
 C         -3.051361   -1.922572   -1.381139
 C         -4.201608   -2.723403   -1.449974
 C         -4.605208   -3.295687   -2.654626
 C         -3.879603   -3.093399   -3.836502
 C         -2.739116   -2.285089   -3.765856
 C         -2.331968   -1.706672   -2.563129
 H         -4.785976   -2.912612   -0.554847
 H         -5.502594   -3.909642   -2.674063
 H         -2.156910   -2.100000   -4.665645
 H         -1.445581   -1.080685   -2.555827
 C          4.302414    3.742886    5.132569
 H          3.911194    4.766191    5.209073
 H          3.930898    3.186404    5.999065
 C          3.303199    4.553361   -4.756288
 H          3.224362    3.959175   -5.672418
 H          2.545912    5.343635   -4.795347
 C         -3.303179   -4.553443    4.756166
 H         -2.545958   -5.343784    4.795155
 H         -3.224233   -3.959290    5.672307
 C         -4.302482   -3.742944   -5.132593
 H         -3.931055   -3.186421   -5.999102
 H         -3.911187   -4.766218   -5.209133
 H          5.392943    3.807504    5.210212
 H          4.285209    5.044592   -4.769497
 H         -4.285230   -5.044589    4.769422
 H         -5.393010   -3.807644   -5.210179
 S        -13.600954   -1.611945    0.056174
 S         13.600929    1.612012   -0.056089
 C         11.419201    3.449126    0.035638
 H         11.765080    4.020180   -0.833933
 H         10.326904    3.458292    0.047620
 H         11.783773    3.962817    0.933051
 C        -11.419248   -3.449086   -0.035503
 H        -10.326956   -3.458248   -0.047978
 H        -11.764707   -4.019963    0.834355
 H        -11.784246   -3.962967   -0.932631
