       126
S0: Total Energy = -5527.47851483
 C          6.627737    0.770544   -0.051802
 C          5.850036    1.946194   -0.063106
 C          4.479305    1.703819   -0.064415
 C          4.182978    0.343418   -0.045394
 C          2.755809    0.131095   -0.031586
 C          2.144589    1.414015   -0.019047
 C          0.762880    1.530762   -0.023043
 S          5.577612   -0.668999   -0.032317
 C          3.200571    2.543720   -0.032875
 H          0.279622    2.503112   -0.024303
 C         -5.568184   -1.827393    0.044483
 C         -5.246111   -0.456324    0.021867
 C         -3.854044   -0.241125   -0.001184
 C         -3.114536   -1.439221    0.004328
 C         -1.720720   -1.219472    0.000797
 C         -1.421718    0.131692   -0.017598
 C          0.005648    0.350650   -0.028631
 C          0.616722   -0.933009   -0.039101
 C          1.995961   -1.050046   -0.037791
 S         -4.142828   -2.864360    0.033943
 S         -2.820040    1.174245   -0.027316
 C         -0.442905   -2.060399   -0.026048
 H          2.480723   -2.021469   -0.040329
 C          8.042404    0.849485   -0.053920
 C          9.065383   -0.079465   -0.041898
 C          8.897255   -1.560011   -0.020254
 O          7.834931   -2.178040   -0.017048
 C         10.256184   -2.125471   -0.003895
 C         10.792139   -3.382768    0.020771
 C         12.504827   -1.502118   -0.003257
 C         11.209543   -1.054998   -0.017617
 C         10.499589    0.231179   -0.043832
 C         11.140285    1.461664   -0.067030
 C         12.564193    1.549458   -0.063623
 N         13.727133    1.629449   -0.061104
 C         10.484606    2.726916   -0.097893
 N          9.984473    3.780001   -0.124424
 H          8.357007    1.888019   -0.065863
 H         13.432678   -0.949561   -0.007943
 C         -9.122519   -0.970479    0.080676
 C        -10.142123   -0.039152    0.081988
 C         -9.967990    1.441096    0.064430
 O         -8.902418    2.053232    0.047776
 C        -11.323820    2.012283    0.071623
 C        -11.854606    3.272201    0.062728
 C        -13.575052    1.398735    0.100576
 C        -12.281718    0.945741    0.092991
 C        -11.577880   -0.343682    0.100393
 C        -12.222629   -1.571815    0.121010
 C        -13.646785   -1.654605    0.136336
 N        -14.809919   -1.729960    0.148912
 C        -11.569849   -2.838912    0.129139
 N        -11.069807   -3.892329    0.136468
 H         -9.438701   -2.008345    0.096051
 H        -14.505231    0.850268    0.115855
 C          3.213164    3.395300    1.255609
 C          3.964880    4.581131    1.295123
 C          4.066899    5.328348    2.465198
 C          3.423105    4.925318    3.644678
 C          2.681712    3.740748    3.603738
 C          2.577998    2.985916    2.432370
 H          4.470427    4.929591    0.399044
 H          4.657872    6.241650    2.461821
 H          2.174193    3.395396    4.501635
 H          1.997741    2.069335    2.448161
 C          2.991521    3.398045   -1.301490
 C          2.084225    4.468019   -1.296237
 C          1.823919    5.194488   -2.456964
 C          2.459661    4.886095   -3.667022
 C          3.359536    3.813997   -3.670178
 C          3.620967    3.081599   -2.511431
 H          1.582644    4.746558   -0.374298
 H          1.115234    6.018923   -2.419043
 H          3.867849    3.544155   -4.593217
 H          4.322817    2.254825   -2.558339
 C         -0.242409   -2.907767    1.248028
 C          0.693593   -3.953445    1.266611
 C          0.945333   -4.670363    2.434331
 C          0.272328   -4.377386    3.628706
 C         -0.655894   -3.330856    3.608072
 C         -0.909103   -2.607062    2.441441
 H          1.225055   -4.220256    0.358089
 H          1.677902   -5.474267    2.415339
 H         -1.193238   -3.073162    4.517935
 H         -1.631173   -1.797066    2.471312
 C         -0.446125   -2.908176   -1.318598
 C         -1.087880   -4.155496   -1.345221
 C         -1.177161   -4.893126   -2.524800
 C         -0.630282   -4.417409   -3.723524
 C          0.000585   -3.168061   -3.695701
 C          0.091324   -2.425071   -2.518219
 H         -1.512059   -4.565655   -0.433702
 H         -1.681471   -5.856734   -2.510233
 H          0.430228   -2.764806   -4.609955
 H          0.585035   -1.459134   -2.542887
 C          3.516036    5.754857    4.903646
 H          2.878782    6.646762    4.840493
 H          3.197766    5.184985    5.782275
 C          2.203654    5.699343   -4.913930
 H          2.376714    5.108749   -5.819546
 H          1.175229    6.074946   -4.942972
 C          0.523564   -5.180885    4.882785
 H          1.576215   -5.471834    4.967576
 H          0.252702   -4.616208    5.780680
 C         -0.697323   -5.234533   -4.992080
 H         -0.655849   -4.597036   -5.881267
 H          0.143500   -5.938126   -5.055855
 H          4.540047    6.104194    5.077865
 H          2.868736    6.571915   -4.962106
 H         -0.068683   -6.105631    4.886908
 H         -1.617891   -5.826013   -5.039054
 S        -13.605246    3.137706    0.081300
 S         12.542568   -3.240921    0.027443
 C         10.093830   -4.706058    0.040353
 H         10.354683   -5.284466    0.934260
 H          9.014486   -4.537784    0.035633
 H         10.358025   -5.312356   -0.833919
 C        -11.151031    4.592627    0.041335
 H        -10.072380    4.420360    0.030052
 H        -11.421970    5.177426   -0.845356
 H        -11.400712    5.194544    0.922841
 H          6.313173    2.927023   -0.067648
 S         -6.659756    0.552723    0.030447
 C         -6.940215   -2.069411    0.065418
 H         -7.400810   -3.050886    0.082845
 C         -7.707052   -0.891574    0.062051
       126
T1: Total Energy = -5527.43280479
 C         -6.602076    0.778168    0.055271
 C         -5.815068    1.961450    0.066081
 C         -4.454834    1.718447    0.066164
 C         -4.150324    0.345737    0.048831
 C         -2.749107    0.135721    0.040023
 C         -2.119824    1.429848    0.031909
 C         -0.751387    1.541444    0.044898
 S         -5.558695   -0.668305    0.037748
 C         -3.176918    2.558947    0.036062
 H         -0.261699    2.510350    0.051153
 C          5.545104   -1.849607   -0.049858
 C          5.213682   -0.465918   -0.016116
 C          3.845351   -0.252599    0.013462
 C          3.084500   -1.466591    0.002041
 C          1.718703   -1.247063    0.011685
 C          1.407501    0.133141    0.041412
 C          0.014196    0.347160    0.048937
 C         -0.616558   -0.947126    0.050022
 C         -1.985175   -1.057073    0.044166
 S          4.121108   -2.894212   -0.041110
 S          2.816885    1.175951    0.054374
 C          0.436575   -2.079889    0.030740
 H         -2.476829   -2.024697    0.039643
 C         -8.011024    0.861201    0.056195
 C         -9.039745   -0.073628    0.044253
 C         -8.872881   -1.555858    0.027183
 O         -7.810149   -2.174070    0.026555
 C        -10.230991   -2.121079    0.012286
 C        -10.767615   -3.377968   -0.008061
 C        -12.477481   -1.494097    0.008773
 C        -11.182722   -1.048977    0.021957
 C        -10.467285    0.235011    0.043873
 C        -11.107536    1.471708    0.061391
 C        -12.530061    1.561183    0.056367
 N        -13.693351    1.643951    0.052509
 C        -10.453324    2.736366    0.087234
 N         -9.957192    3.792084    0.109525
 H         -8.326993    1.898699    0.066656
 H        -13.404766   -0.940672    0.011273
 C          9.090749   -0.980951   -0.088457
 C         10.115623   -0.036451   -0.084551
 C          9.935483    1.443956   -0.060910
 O          8.865559    2.050472   -0.042168
 C         11.287049    2.022890   -0.065686
 C         11.811988    3.284707   -0.051837
 C         13.538223    1.415804   -0.096940
 C         12.248139    0.959142   -0.091183
 C         11.542269   -0.330628   -0.103450
 C         12.193100   -1.564774   -0.127789
 C         13.615530   -1.642726   -0.142648
 N         14.779661   -1.716269   -0.154858
 C         11.548996   -2.833991   -0.139801
 N         11.060650   -3.893869   -0.150412
 H          9.413004   -2.015963   -0.110658
 H         14.470412    0.870955   -0.114318
 C         -3.188177    3.399654   -1.259863
 C         -3.931972    4.590131   -1.306857
 C         -4.034311    5.326215   -2.483838
 C         -3.399741    4.906635   -3.662584
 C         -2.667139    3.716796   -3.614011
 C         -2.563215    2.972868   -2.435935
 H         -4.431368    4.950609   -0.412241
 H         -4.618721    6.243629   -2.486578
 H         -2.167637    3.358411   -4.511218
 H         -1.990407    2.051510   -2.446481
 C         -2.974171    3.420026    1.300208
 C         -2.068487    4.491391    1.292027
 C         -1.814128    5.224278    2.449781
 C         -2.454518    4.921212    3.659024
 C         -3.352341    3.847525    3.664743
 C         -3.607604    3.107988    2.509075
 H         -1.564371    4.766177    0.370350
 H         -1.107128    6.050006    2.410282
 H         -3.863953    3.581963    4.587102
 H         -4.308653    2.280625    2.558026
 C          0.233240   -2.916880   -1.248913
 C         -0.702119   -3.963117   -1.271348
 C         -0.956839   -4.671129   -2.443509
 C         -0.287770   -4.368489   -3.637973
 C          0.639106   -3.320942   -3.613077
 C          0.894893   -2.605074   -2.442122
 H         -1.229862   -4.237655   -0.363046
 H         -1.688184   -5.476086   -2.428000
 H          1.172908   -3.055738   -4.522718
 H          1.616058   -1.794111   -2.469739
 C          0.440132   -2.934782    1.317455
 C          1.082866   -4.181996    1.331249
 C          1.174819   -4.928468    2.504259
 C          0.629549   -4.461704    3.708068
 C         -0.002068   -3.212819    3.691986
 C         -0.094529   -2.459594    2.520820
 H          1.504231   -4.582333    0.413812
 H          1.679271   -5.891728    2.481572
 H         -0.429945   -2.817403    4.610306
 H         -0.588239   -1.493848    2.554677
 C         -3.494053    5.723753   -4.929383
 H         -2.852534    6.613267   -4.877423
 H         -3.182008    5.143674   -5.803493
 C         -2.205107    5.742139    4.902092
 H         -2.387386    5.158644    5.810411
 H         -1.175702    6.114542    4.936300
 C         -0.542936   -5.163006   -4.896736
 H         -1.599267   -5.437770   -4.989214
 H         -0.257661   -4.599136   -5.790510
 C          0.701381   -5.288924    4.969565
 H          0.618257   -4.662877    5.863719
 H         -0.113443   -6.024086    5.008071
 H         -4.517188    6.075967   -5.102680
 H         -2.867567    6.617209    4.938443
 H          0.035219   -6.096532   -4.899832
 H          1.642219   -5.846463    5.029395
 S         13.564387    3.159861   -0.070854
 S        -12.518527   -3.236128   -0.015812
 C        -10.069869   -4.701604   -0.022724
 H        -10.330178   -5.282741   -0.915092
 H         -8.990341   -4.534438   -0.017212
 H        -10.335691   -5.305225    0.852977
 C         11.102080    4.601659   -0.025220
 H         10.024077    4.425093   -0.014183
 H         11.370882    5.184669    0.863416
 H         11.348835    5.208310   -0.904430
 H         -6.279443    2.941292    0.069912
 S          6.642445    0.546736   -0.023764
 C          6.903754   -2.091880   -0.077220
 H          7.367344   -3.071150   -0.102807
 C          7.683646   -0.901877   -0.067528
       126
S1: Total Energy = -5527.41523264
 C         -6.606048    0.777326    0.044575
 C         -5.821978    1.956445    0.057104
 C         -4.457066    1.710661    0.056516
 C         -4.156157    0.341408    0.037966
 C         -2.749781    0.129837    0.030724
 C         -2.122929    1.423326    0.020968
 C         -0.752514    1.536091    0.031806
 S         -5.564470   -0.670471    0.024676
 C         -3.180129    2.551475    0.029468
 H         -0.263794    2.505444    0.035040
 C          5.549803   -1.843217   -0.040696
 C          5.223150   -0.466759   -0.015670
 C          3.843848   -0.254112    0.012030
 C          3.092964   -1.463175    0.007421
 C          1.717949   -1.244511    0.014559
 C          1.410062    0.128481    0.035038
 C          0.010351    0.344098    0.039880
 C         -0.616515   -0.948741    0.046910
 C         -1.987857   -1.060543    0.039204
 S          4.128838   -2.887474   -0.026431
 S          2.815048    1.170407    0.042671
 C          0.438164   -2.079532    0.041356
 H         -2.477896   -2.028923    0.038641
 C         -8.020149    0.860487    0.046899
 C         -9.047047   -0.072363    0.032068
 C         -8.880526   -1.554925    0.005567
 O         -7.817410   -2.173273    0.001782
 C        -10.238192   -2.119339   -0.014424
 C        -10.774460   -3.376001   -0.045045
 C        -12.485168   -1.492096   -0.014470
 C        -11.190176   -1.046306    0.003074
 C        -10.476286    0.235797    0.035222
 C        -11.115516    1.475000    0.064496
 C        -12.537228    1.566282    0.061488
 N        -13.700895    1.650695    0.059310
 C        -10.460165    2.737854    0.101906
 N         -9.962159    3.793068    0.133815
 H         -8.334683    1.898414    0.061055
 H        -13.412396   -0.938635   -0.008247
 C          9.104633   -0.979632   -0.090652
 C         10.123138   -0.039535   -0.093980
 C          9.941950    1.441158   -0.070491
 O          8.871328    2.046592   -0.048155
 C         11.292731    2.020106   -0.079672
 C         11.816029    3.282651   -0.067030
 C         13.545937    1.416518   -0.118444
 C         12.255720    0.956737   -0.108780
 C         11.555782   -0.332786   -0.119394
 C         12.206094   -1.566252   -0.149023
 C         13.628357   -1.644382   -0.170814
 N         14.792679   -1.717357   -0.188671
 C         11.560559   -2.834501   -0.161230
 N         11.068294   -3.892903   -0.172136
 H          9.425081   -2.015559   -0.109311
 H         14.478761    0.872864   -0.138996
 C         -3.192279    3.398683   -1.261599
 C         -3.931754    4.592214   -1.300612
 C         -4.034394    5.334388   -2.473701
 C         -3.404432    4.918259   -3.656145
 C         -2.676436    3.725121   -3.615603
 C         -2.572500    2.974938   -2.441689
 H         -4.427389    4.950140   -0.402917
 H         -4.615413    6.253924   -2.470425
 H         -2.180966    3.369245   -4.516015
 H         -2.003974    2.050950   -2.458580
 C         -2.975984    3.403786    1.299384
 C         -2.073062    4.477464    1.297980
 C         -1.818211    5.201319    2.461299
 C         -2.455286    4.886492    3.669389
 C         -3.350462    3.810506    3.668165
 C         -3.606064    3.079825    2.507043
 H         -1.571726    4.761340    0.377544
 H         -1.113528    6.029250    2.427252
 H         -3.859451    3.536051    4.589347
 H         -4.304583    2.249993    2.550402
 C          0.235797   -2.931736   -1.228114
 C         -0.692380   -3.984363   -1.237032
 C         -0.947051   -4.704165   -2.402122
 C         -0.285226   -4.407089   -3.601939
 C          0.634357   -3.352591   -3.590360
 C          0.889852   -2.624861   -2.427033
 H         -1.214946   -4.254009   -0.324312
 H         -1.672892   -5.513778   -2.376791
 H          1.161899   -3.091294   -4.504736
 H          1.604400   -1.808353   -2.464687
 C          0.442011   -2.912265    1.343295
 C          1.070921   -4.165915    1.380713
 C          1.160191   -4.887954    2.569441
 C          0.626994   -4.389759    3.765784
 C          0.010119   -3.133725    3.726396
 C         -0.079663   -2.405156    2.540133
 H          1.484254   -4.592691    0.471994
 H          1.653375   -5.857231    2.564603
 H         -0.407607   -2.713363    4.638255
 H         -0.560958   -1.432703    2.556566
 C         -3.498624    5.742163   -4.918454
 H         -2.851372    6.627408   -4.864429
 H         -3.193511    5.164614   -5.796661
 C         -2.205279    5.697546    4.918733
 H         -2.378505    5.104280    5.822485
 H         -1.178533    6.077315    4.950991
 C         -0.539775   -5.214032   -4.852789
 H         -1.590558   -5.513662   -4.928661
 H         -0.280105   -4.648692   -5.753445
 C          0.694888   -5.190411    5.044331
 H          0.663463   -4.541074    5.925181
 H         -0.151623   -5.885737    5.121098
 H         -4.520195    6.101585   -5.085876
 H         -2.874148    6.567154    4.966706
 H          0.060104   -6.133745   -4.859260
 H          1.610579   -5.789044    5.093503
 S         13.569095    3.160267   -0.091748
 S        -12.526317   -3.235105   -0.052895
 C        -10.076315   -4.699156   -0.069694
 H        -10.336878   -5.274206   -0.966027
 H         -8.996821   -4.531612   -0.063546
 H        -10.341376   -5.309443    0.801739
 C         11.104587    4.598576   -0.037703
 H         10.026867    4.420455   -0.023235
 H         11.375413    5.181832    0.850239
 H         11.347628    5.206019   -0.917488
 H         -6.283988    2.937310    0.062824
 S          6.646395    0.544690   -0.028927
 C          6.918161   -2.085726   -0.067545
 H          7.380038   -3.066011   -0.088267
 C          7.688261   -0.902727   -0.065767
