       126
S0: Total Energy = -5204.24988201
 6          7.114252    1.464996    0.051249
 6          6.158290    2.496433    0.066805
 6          4.850619    2.021016    0.043525
 6          4.758239    0.611909    0.007900
 6          3.423449    0.156318    0.001835
 6          2.527321    1.212584    0.024348
 6          1.163920    0.738553    0.011984
 6          1.222913   -0.679849   -0.043827
 6          0.057074   -1.428376   -0.052401
16          6.328075   -0.134717    0.001960
16          3.267826    2.792151    0.056025
 6          2.685354   -1.182068   -0.064209
 1          6.443209    3.542201    0.094360
 1          0.083007   -2.513186   -0.087398
 6         -7.114250   -1.464992   -0.051249
 6         -6.158289   -2.496429   -0.066803
 6         -4.850618   -2.021012   -0.043521
 6         -4.758237   -0.611905   -0.007896
 6         -3.423447   -0.156314   -0.001830
 6         -2.527320   -1.212581   -0.024343
 6         -1.163918   -0.738550   -0.011979
 6         -1.222912    0.679852    0.043832
 6         -0.057073    1.428380    0.052405
16         -6.328073    0.134721   -0.001956
16         -3.267825   -2.792147   -0.056019
 6         -2.685353    1.182071    0.064214
 1         -6.443208   -3.542197   -0.094359
 1         -0.083006    2.513189    0.087403
 6          8.494194    1.787335    0.073739
 6          9.658687    1.043573    0.068146
 6          9.742213   -0.432861    0.028202
 8          8.817753   -1.238278   -0.003641
 6         11.180593   -0.778842    0.033725
 6         11.745057   -2.047603    0.004591
 6         13.129437   -2.124878    0.017948
 6         13.908927   -0.960627    0.059572
 6         13.342738    0.307417    0.088800
 6         11.945508    0.399626    0.075320
 6         11.025999    1.567102    0.098607
 6         11.443727    2.887824    0.142760
 6         12.817237    3.278530    0.167138
 7         13.922302    3.647902    0.188225
 6         10.567287    4.015078    0.170451
 7          9.896829    4.968319    0.195116
 1          8.625095    2.863274    0.103108
 1         11.134660   -2.943633   -0.027048
 9         13.753436   -3.308930   -0.008208
 9         15.241658   -1.095403    0.071092
 1         14.005494    1.161116    0.120350
 6         -8.494193   -1.787332   -0.073743
 6         -9.658688   -1.043572   -0.068152
 6         -9.742218    0.432862   -0.028206
 8         -8.817761    1.238282    0.003637
 6        -11.180600    0.778838   -0.033730
 6        -11.745067    2.047598   -0.004595
 6        -13.129448    2.124868   -0.017952
 6        -13.908934    0.960615   -0.059577
 6        -13.342740   -0.307428   -0.088807
 6        -11.945510   -0.399632   -0.075327
 6        -11.025998   -1.567105   -0.098617
 6        -11.443723   -2.887827   -0.142775
 6        -12.817232   -3.278536   -0.167154
 7        -13.922297   -3.647907   -0.188241
 6        -10.567280   -4.015080   -0.170471
 7         -9.896821   -4.968320   -0.195139
 1         -8.625093   -2.863270   -0.103112
 1        -11.134673    2.943629    0.027046
 9        -13.753451    3.308918    0.008205
 9        -15.241666    1.095386   -0.071097
 1        -14.005494   -1.161129   -0.120358
 6          3.069859   -1.882507   -1.387635
 6          4.233881   -2.662903   -1.460116
 6          4.645032   -3.229534   -2.665381
 6          3.912835   -3.041945   -3.845173
 6          2.757465   -2.255349   -3.771234
 6          2.342197   -1.684153   -2.567474
 1          4.823369   -2.841951   -0.566043
 1          5.553238   -3.827553   -2.686377
 1          2.168478   -2.082928   -4.669283
 1          1.443026   -1.076923   -2.557040
 6          2.916099   -2.071474    1.175486
 6          2.590629   -3.436000    1.143481
 6          2.714939   -4.230012    2.281904
 6          3.171647   -3.697514    3.495336
 6          3.489306   -2.334994    3.525201
 6          3.363425   -1.534754    2.388598
 1          2.247303   -3.889023    0.218285
 1          2.454470   -5.284531    2.223966
 1          3.842787   -1.887383    4.451307
 1          3.613566   -0.480587    2.456725
 6         -2.916097    2.071478   -1.175480
 6         -2.590626    3.436004   -1.143475
 6         -2.714936    4.230015   -2.281898
 6         -3.171645    3.697518   -3.495330
 6         -3.489306    2.334997   -3.525195
 6         -3.363425    1.534758   -2.388591
 1         -2.247298    3.889026   -0.218280
 1         -2.454466    5.284534   -2.223961
 1         -3.842788    1.887386   -4.451300
 1         -3.613566    0.480591   -2.456718
 6         -3.069857    1.882509    1.387641
 6         -4.233876    2.662911    1.460122
 6         -4.645026    3.229542    2.665387
 6         -3.912832    3.041947    3.845180
 6         -2.757465    2.255346    3.771242
 6         -2.342198    1.684150    2.567482
 1         -4.823362    2.841963    0.566049
 1         -5.553229    3.827564    2.686383
 1         -2.168481    2.082919    4.669291
 1         -1.443030    1.076916    2.557048
 6          4.343160   -3.685457   -5.142196
 1          3.966227   -4.714077   -5.219312
 1          3.963033   -3.133724   -6.008099
 6          3.340495   -4.570005    4.716692
 1          3.266742   -3.985399    5.639466
 1          2.583254   -5.360573    4.751922
 6         -3.340495    4.570008   -4.716687
 1         -2.583283    5.360603   -4.751894
 1         -3.266698    3.985409   -5.639461
 6         -4.343152    3.685460    5.142204
 1         -3.963104    3.133672    6.008107
 1         -3.966135    4.714046    5.219363
 1          5.434441   -3.734961   -5.221356
 1          4.322382   -5.061764    4.719739
 1         -4.322401    5.061731   -4.719756
 1         -5.434432    3.735052    5.221324
       126
T1: Total Energy = -5204.20453423
 6          7.093327    1.469859    0.046282
 6          6.120976    2.505784    0.060952
 6          4.826420    2.027529    0.036189
 6          4.733394    0.606062   -0.000243
 6          3.421185    0.151076   -0.009172
 6          2.495724    1.218891    0.012247
 6          1.167143    0.746654    0.005365
 6          1.223597   -0.692133   -0.046170
 6          0.071623   -1.436716   -0.046953
16          6.319691   -0.134506   -0.005286
16          3.240833    2.803679    0.046235
 6          2.688060   -1.189078   -0.072887
 1          6.404892    3.551329    0.089330
 1          0.096876   -2.521463   -0.077446
 6         -7.093326   -1.469858   -0.046306
 6         -6.120975   -2.505782   -0.060984
 6         -4.826419   -2.027527   -0.036217
 6         -4.733393   -0.606061    0.000225
 6         -3.421184   -0.151075    0.009156
 6         -2.495724   -1.218890   -0.012269
 6         -1.167143   -0.746652   -0.005382
 6         -1.223597    0.692135    0.046157
 6         -0.071622    1.436717    0.046937
16         -6.319690    0.134507    0.005275
16         -3.240832   -2.803678   -0.046266
 6         -2.688060    1.189079    0.072878
 1         -6.404891   -3.551327   -0.089371
 1         -0.096876    2.521464    0.077428
 6          8.465978    1.796848    0.071619
 6          9.638877    1.047991    0.067978
 6          9.722076   -0.430473    0.026318
 8          8.794886   -1.233245   -0.009082
 6         11.159058   -0.779661    0.034947
 6         11.723870   -2.047265    0.005812
 6         13.109510   -2.124322    0.022394
 6         13.885746   -0.960024    0.067054
 6         13.317687    0.309208    0.096334
 6         11.921698    0.400710    0.079683
 6         10.998043    1.566263    0.101996
 6         11.416335    2.894271    0.148875
 6         12.788143    3.283603    0.176439
 7         13.894388    3.651947    0.200153
 6         10.542908    4.021431    0.176334
 7          9.876527    4.978582    0.201133
 1          8.597904    2.871983    0.101507
 1         11.114429   -2.943904   -0.028272
 9         13.733824   -3.309731   -0.003634
 9         15.219437   -1.091079    0.081674
 1         13.979878    1.163287    0.130382
 6         -8.465978   -1.796847   -0.071642
 6         -9.638877   -1.047991   -0.067988
 6         -9.722076    0.430473   -0.026309
 8         -8.794887    1.233245    0.009097
 6        -11.159058    0.779660   -0.034922
 6        -11.723871    2.047263   -0.005763
 6        -13.109512    2.124319   -0.022333
 6        -13.885747    0.960021   -0.067004
 6        -13.317687   -0.309210   -0.096307
 6        -11.921698   -0.400711   -0.079668
 6        -10.998042   -1.566263   -0.102006
 6        -11.416334   -2.894271   -0.148901
 6        -12.788142   -3.283603   -0.176461
 7        -13.894387   -3.651947   -0.200173
 6        -10.542906   -4.021430   -0.176383
 7         -9.876525   -4.978580   -0.201200
 1         -8.597903   -2.871982   -0.101540
 1        -11.114431    2.943902    0.028329
 9        -13.733826    3.309727    0.003717
 9        -15.219438    1.091075   -0.081610
 1        -13.979877   -1.163289   -0.130362
 6          3.071523   -1.878097   -1.402560
 6          4.232179   -2.662748   -1.482075
 6          4.641158   -3.216943   -2.693529
 6          3.910845   -3.011599   -3.871888
 6          2.759722   -2.219533   -3.790430
 6          2.346857   -1.659735   -2.580682
 1          4.820393   -2.854372   -0.589942
 1          5.546252   -3.819194   -2.720916
 1          2.173248   -2.032712   -4.687099
 1          1.451627   -1.046700   -2.564977
 6          2.927262   -2.078985    1.164108
 6          2.617638   -3.446962    1.127338
 6          2.747240   -4.241254    2.264831
 6          3.193359   -3.705524    3.480916
 6          3.494207   -2.339236    3.515077
 6          3.362157   -1.538244    2.379876
 1          2.283158   -3.902284    0.200107
 1          2.499855   -5.298654    2.203987
 1          3.838508   -1.889230    4.443345
 1          3.599399   -0.481267    2.451965
 6         -2.927264    2.078994   -1.164110
 6         -2.617647    3.446972   -1.127330
 6         -2.747252    4.241272   -2.264817
 6         -3.193368    3.705550   -3.480905
 6         -3.494208    2.339260   -3.515077
 6         -3.362155    1.538261   -2.379884
 1         -2.283170    3.902288   -0.200094
 1         -2.499872    5.298674   -2.203964
 1         -3.838506    1.889260   -4.443350
 1         -3.599392    0.481283   -2.451981
 6         -3.071521    1.878089    1.402556
 6         -4.232172    2.662746    1.482077
 6         -4.641150    3.216932    2.693536
 6         -3.910840    3.011573    3.871893
 6         -2.759721    2.219501    3.790430
 6         -2.346857    1.659712    2.580678
 1         -4.820385    2.854381    0.589945
 1         -5.546241    3.819188    2.720928
 1         -2.173249    2.032668    4.687099
 1         -1.451631    1.046672    2.564968
 6          4.339733   -3.641609   -5.175723
 1          3.958994   -4.667883   -5.263982
 1          3.961965   -3.078925   -6.035489
 6          3.368247   -4.578378    4.700940
 1          3.284090   -3.996744    5.624620
 1          2.620894   -5.378408    4.731433
 6         -3.368260    4.578412   -4.700923
 1         -2.620937    5.378472   -4.731389
 1         -3.284060    3.996793   -5.624609
 6         -4.339724    3.641574    5.175735
 1         -3.962028    3.078833    6.035495
 1         -3.958907    4.667815    5.264039
 1          5.430817   -3.694219   -5.254497
 1          4.356245   -5.057584    4.705948
 1         -4.356277    5.057580   -4.705949
 1         -5.430807    3.694266    5.254473
       126
S1: Total Energy = -5204.18748321
 6          7.096927    1.468724    0.045885
 6          6.133513    2.501115    0.060599
 6          4.831198    2.021461    0.036587
 6          4.740219    0.606507    0.001328
 6          3.419090    0.151277   -0.006582
 6          2.502849    1.216398    0.014331
 6          1.165915    0.744751    0.007361
 6          1.222614   -0.690744   -0.045094
 6          0.067302   -1.436015   -0.048187
16          6.322509   -0.134579   -0.004416
16          3.248021    2.798066    0.047029
 6          2.686043   -1.187986   -0.069017
 1          6.416250    3.547014    0.088380
 1          0.092048   -2.520639   -0.080025
 6         -7.096927   -1.468727   -0.045833
 6         -6.133512   -2.501118   -0.060519
 6         -4.831197   -2.021464   -0.036485
 6         -4.740219   -0.606509   -0.001231
 6         -3.419090   -0.151279    0.006698
 6         -2.502849   -1.216401   -0.014204
 6         -1.165915   -0.744753   -0.007232
 6         -1.222614    0.690742    0.045222
 6         -0.067303    1.436013    0.048317
16         -6.322509    0.134576    0.004478
16         -3.248020   -2.798068   -0.046905
 6         -2.686043    1.187984    0.069136
 1         -6.416249   -3.547017   -0.088300
 1         -0.092048    2.520638    0.080155
 6          8.478031    1.794887    0.071223
 6          9.644960    1.048146    0.067390
 6          9.726115   -0.431744    0.023743
 8          8.796938   -1.232204   -0.012648
 6         11.161707   -0.781847    0.031846
 6         11.724762   -2.049931    0.000614
 6         13.110586   -2.129351    0.017165
 6         13.888469   -0.965654    0.063882
 6         13.323314    0.304370    0.095247
 6         11.926116    0.399610    0.078715
 6         11.009657    1.564647    0.102849
 6         11.427872    2.894280    0.152698
 6         12.798969    3.283354    0.182198
 7         13.906103    3.650509    0.207741
 6         10.554283    4.020110    0.181813
 7          9.884865    4.975843    0.207876
 1          8.609014    2.870315    0.101745
 1         11.113863   -2.945546   -0.034910
 9         13.733362   -3.315768   -0.010814
 9         15.221894   -1.099619    0.078375
 1         13.986675    1.157514    0.130562
 6         -8.478030   -1.794890   -0.071218
 6         -9.644959   -1.048149   -0.067442
 6         -9.726114    0.431743   -0.023815
 8         -8.796939    1.232202    0.012622
 6        -11.161705    0.781847   -0.032006
 6        -11.724761    2.049931   -0.000826
 6        -13.110583    2.129353   -0.017465
 6        -13.888465    0.965656   -0.064214
 6        -13.323309   -0.304369   -0.095526
 6        -11.926113   -0.399610   -0.078905
 6        -11.009654   -1.564649   -0.102963
 6        -11.427867   -2.894283   -0.152801
 6        -12.798962   -3.283355   -0.182379
 7        -13.906096   -3.650510   -0.207983
 6        -10.554278   -4.020115   -0.181824
 7         -9.884860   -4.975849   -0.207820
 1         -8.609012   -2.870318   -0.101736
 1        -11.113863    2.945547    0.034724
 9        -13.733361    3.315771    0.010460
 9        -15.221890    1.099622   -0.078794
 1        -13.986669   -1.157513   -0.130870
 6          3.071790   -1.878049   -1.397046
 6          4.228266   -2.669268   -1.472374
 6          4.638893   -3.224366   -2.682773
 6          3.914554   -3.013483   -3.863999
 6          2.767879   -2.214381   -3.786669
 6          2.353635   -1.653257   -2.578224
 1          4.811832   -2.864945   -0.578117
 1          5.540579   -3.831764   -2.707215
 1          2.186510   -2.022884   -4.685624
 1          1.462735   -1.033745   -2.565908
 6          2.920161   -2.074830    1.170984
 6          2.612574   -3.443348    1.136734
 6          2.738401   -4.233834    2.277237
 6          3.178557   -3.693639    3.493637
 6          3.477263   -2.326742    3.525087
 6          3.348727   -1.529422    2.387037
 1          2.282939   -3.902069    0.209447
 1          2.492861   -5.291764    2.218665
 1          3.816882   -1.873491    4.453459
 1          3.583638   -0.471741    2.456793
 6         -2.920155    2.074829   -1.170865
 6         -2.612605    3.443354   -1.136601
 6         -2.738427    4.233844   -2.277102
 6         -3.178540    3.693645   -3.493515
 6         -3.477210    2.326740   -3.524979
 6         -3.348679    1.529417   -2.386932
 1         -2.283004    3.902078   -0.209303
 1         -2.492916    5.291780   -2.218518
 1         -3.816796    1.873485   -4.453362
 1         -3.583561    0.471730   -2.456699
 6         -3.071799    1.878047    1.397162
 6         -4.228269    2.669276    1.472477
 6         -4.638905    3.224377    2.682872
 6         -3.914581    3.013488    3.864105
 6         -2.767912    2.214377    3.786788
 6         -2.353659    1.653250    2.578348
 1         -4.811822    2.864959    0.578213
 1         -5.540587    3.831783    2.707303
 1         -2.186555    2.022875    4.685750
 1         -1.462763    1.033731    2.566043
 6          4.345150   -3.644621   -5.166574
 1          3.958476   -4.668463   -5.257286
 1          3.974379   -3.078850   -6.027330
 6          3.349421   -4.562511    4.716958
 1          3.260725   -3.978203    5.638497
 1          2.603090   -5.363498    4.746669
 6         -3.349400    4.562518   -4.716835
 1         -2.603117    5.363550   -4.746504
 1         -3.260628    3.978225   -5.638376
 6         -4.345185    3.644630    5.166676
 1         -3.974496    3.078810    6.027435
 1         -3.958432    4.668438    5.257430
 1          5.436193   -3.703858   -5.240678
 1          4.338076   -5.040248    4.727340
 1         -4.338084    5.040195   -4.727258
 1         -5.436226    3.703952    5.240734
