       126
S0: Total Energy = -5726.52263163
 C         -7.086399   -1.593655    0.061026
 C         -6.111493   -2.607351    0.076899
 C         -4.812990   -2.108060    0.052344
 C         -4.746487   -0.697406    0.015306
 C         -3.420142   -0.217700    0.007222
 C         -2.504990   -1.257554    0.029600
 C         -1.150408   -0.759170    0.014648
 C         -1.235006    0.657893   -0.042673
 C         -0.082740    1.427137   -0.053890
 S         -6.329739    0.020334    0.010237
 S         -3.216475   -2.850262    0.063830
 C         -2.706327    1.133677   -0.061370
 H         -6.377222   -3.658156    0.105182
 H         -0.128068    2.511302   -0.090090
 C          7.086400    1.593655   -0.061025
 C          6.111493    2.607351   -0.076899
 C          4.812990    2.108060   -0.052344
 C          4.746488    0.697407   -0.015305
 C          3.420142    0.217700   -0.007221
 C          2.504990    1.257554   -0.029599
 C          1.150409    0.759170   -0.014647
 C          1.235007   -0.657893    0.042674
 C          0.082741   -1.427136    0.053891
 S          6.329739   -0.020334   -0.010237
 S          3.216476    2.850262   -0.063829
 C          2.706328   -1.133677    0.061371
 H          6.377222    3.658156   -0.105183
 H          0.128068   -2.511301    0.090091
 C         -8.459736   -1.942077    0.082982
 C         -9.638576   -1.220659    0.076425
 C         -9.748868    0.253335    0.038348
 O         -8.839296    1.075403    0.008401
 C        -11.196042    0.572896    0.043258
 C        -11.781018    1.829277    0.015413
 C        -13.175230    1.879961    0.027287
 C        -13.946494    0.712917    0.065784
 C        -13.336099   -0.543272    0.093592
 C        -11.938242   -0.620271    0.082237
 C        -10.996511   -1.769551    0.104715
 C        -11.387387   -3.098946    0.146027
 C        -12.752103   -3.519657    0.169311
 N        -13.847234   -3.917677    0.189610
 C        -10.488463   -4.208417    0.171467
 N         -9.798738   -5.147956    0.194127
 H         -8.569882   -3.020313    0.112372
 H        -11.172878    2.726689   -0.014054
 H        -13.964590   -1.422564    0.123061
 C          8.459736    1.942077   -0.082982
 C          9.638576    1.220658   -0.076426
 C          9.748867   -0.253335   -0.038348
 O          8.839295   -1.075404   -0.008400
 C         11.196042   -0.572897   -0.043258
 C         11.781018   -1.829278   -0.015412
 C         13.175229   -1.879963   -0.027287
 C         13.946494   -0.712919   -0.065786
 C         13.336099    0.543270   -0.093595
 C         11.938242    0.620270   -0.082239
 C         10.996511    1.769550   -0.104717
 C         11.387388    3.098945   -0.146032
 C         12.752104    3.519656   -0.169317
 N         13.847235    3.917675   -0.189618
 C         10.488464    4.208416   -0.171475
 N          9.798739    5.147955   -0.194136
 H          8.569882    3.020313   -0.112373
 H         11.172877   -2.726690    0.014055
 H         13.964590    1.422562   -0.123065
 C         -3.105532    1.825731   -1.384848
 C         -4.284248    2.583867   -1.456286
 C         -4.707503    3.142006   -2.661305
 C         -3.973236    2.967791   -3.841874
 C         -2.803060    2.203301   -3.768961
 C         -2.375628    1.640599   -2.565431
 H         -4.875906    2.752213   -0.561563
 H         -5.626958    3.722591   -2.681470
 H         -2.212009    2.041604   -4.667656
 H         -1.465102    1.050510   -2.555789
 C         -2.951244    2.020181    1.177687
 C         -2.650748    3.390360    1.143502
 C         -2.787962    4.183434    2.281089
 C         -3.233247    3.644252    3.495805
 C         -3.525956    2.276198    3.527840
 C         -3.387064    1.476926    2.392071
 H         -2.317136    3.848374    0.217213
 H         -2.546930    5.242469    2.221430
 H         -3.870071    1.823429    4.454965
 H         -3.617947    0.418479    2.461871
 C          2.951244   -2.020181   -1.177685
 C          2.650749   -3.390359   -1.143500
 C          2.787963   -4.183434   -2.281087
 C          3.233248   -3.644252   -3.495804
 C          3.525957   -2.276198   -3.527838
 C          3.387064   -1.476926   -2.392070
 H          2.317137   -3.848374   -0.217212
 H          2.546931   -5.242469   -2.221428
 H          3.870072   -1.823429   -4.454964
 H          3.617947   -0.418479   -2.461870
 C          3.105532   -1.825730    1.384850
 C          4.284248   -2.583866    1.456288
 C          4.707502   -3.142004    2.661309
 C          3.973235   -2.967788    3.841877
 C          2.803058   -2.203297    3.768962
 C          2.375627   -1.640597    2.565433
 H          4.875907   -2.752212    0.561566
 H          5.626957   -3.722588    2.681474
 H          2.212007   -2.041600    4.667658
 H          1.465102   -1.050507    2.555790
 C         -4.417243    3.602501   -5.138620
 H         -4.060642    4.638313   -5.216198
 H         -4.027115    3.058190   -6.004770
 C         -3.416445    4.515106    4.716256
 H         -3.330270    3.933259    5.639698
 H         -2.674098    5.319775    4.749197
 C          3.416448   -4.515106   -4.716255
 H          2.674127   -5.319800   -4.749175
 H          3.330232   -3.933266   -5.639697
 C          4.417238   -3.602499    5.138624
 H          4.027176   -3.058140    6.004773
 H          4.060565   -4.638283    5.216238
 H         -5.509354    3.630576   -5.216799
 H         -4.407380    4.988353    4.720209
 H          4.407399   -4.988319   -4.720228
 H          5.509350   -3.630648    5.216769
 H         15.028406   -0.785762   -0.074055
 H        -15.028407    0.785760    0.074053
Cl         13.981159   -3.436455    0.006561
Cl        -13.981160    3.436453   -0.006560
       126
T1: Total Energy = -5726.47724855
 C          7.065357    1.598623    0.056720
 C          6.073875    2.616454    0.071810
 C          4.788574    2.114529    0.045472
 C          4.721678    0.691515    0.007435
 C          3.418001    0.212753   -0.003738
 C          2.473124    1.263600    0.017501
 C          1.153451    0.767514    0.007999
 C          1.235992   -0.670053   -0.044985
 C          0.097641   -1.435235   -0.048281
 S          6.321410   -0.019781    0.003473
 S          3.189130    2.861637    0.054413
 C          2.709315   -1.140373   -0.070074
 H          6.338571    3.667024    0.101114
 H          0.142428   -2.519354   -0.079878
 C         -7.065357   -1.598623   -0.056697
 C         -6.073876   -2.616454   -0.071783
 C         -4.788574   -2.114529   -0.045453
 C         -4.721678   -0.691515   -0.007424
 C         -3.418001   -0.212753    0.003743
 C         -2.473124   -1.263600   -0.017495
 C         -1.153451   -0.767513   -0.007998
 C         -1.235993    0.670053    0.044984
 C         -0.097642    1.435235    0.048280
 S         -6.321410    0.019781   -0.003461
 S         -3.189130   -2.861638   -0.054396
 C         -2.709315    1.140373    0.070072
 H         -6.338571   -3.667024   -0.101081
 H         -0.142428    2.519354    0.079878
 C          8.431285    1.951506    0.081724
 C          9.618672    1.225081    0.076923
 C          9.729135   -0.250551    0.037164
 O          8.817263   -1.070664    0.003779
 C         11.175237   -0.573069    0.045008
 C         11.760357   -1.828339    0.017047
 C         13.155835   -1.878253    0.032052
 C         13.924275   -0.711254    0.073587
 C         13.311690    0.545934    0.101498
 C         11.914988    0.621823    0.087089
 C         10.968657    1.768834    0.108702
 C         11.359597    3.105388    0.152675
 C         12.722620    3.525103    0.179162
 N         13.818673    3.922801    0.202104
 C         10.463541    4.214832    0.177764
 N          9.778229    5.158617    0.200456
 H          8.542444    3.028938    0.111905
 H         11.153282   -2.726423   -0.014856
 H         13.939342    1.425781    0.133420
 C         -8.431285   -1.951507   -0.081697
 C         -9.618672   -1.225082   -0.076907
 C         -9.729135    0.250551   -0.037164
 O         -8.817264    1.070664   -0.003782
 C        -11.175237    0.573069   -0.045019
 C        -11.760358    1.828339   -0.017076
 C        -13.155835    1.878253   -0.032091
 C        -13.924275    0.711255   -0.073618
 C        -13.311690   -0.545935   -0.101509
 C        -11.914988   -0.621823   -0.087092
 C        -10.968658   -1.768835   -0.108684
 C        -11.359597   -3.105389   -0.152641
 C        -12.722620   -3.525104   -0.179131
 N        -13.818673   -3.922803   -0.202075
 C        -10.463542   -4.214833   -0.177709
 N         -9.778230   -5.158619   -0.200386
 H         -8.542445   -3.028938   -0.111869
 H        -11.153283    2.726424    0.014820
 H        -13.939342   -1.425781   -0.133425
 C          3.107332   -1.820834   -1.399870
 C          4.283063   -2.582837   -1.478555
 C          4.703983   -3.128331   -2.689842
 C          3.971065   -2.936493   -3.868875
 C          2.804730   -2.166933   -3.788238
 C          2.379825   -1.615853   -2.578623
 H          4.873893   -2.763611   -0.585881
 H          5.620614   -3.712892   -2.716558
 H          2.215764   -1.990921   -4.685469
 H          1.472924   -1.020198   -2.563562
 C          2.962894   -2.027200    1.166278
 C          2.679666   -3.400804    1.127163
 C          2.822376   -4.193954    2.263892
 C          3.255851   -3.651362    3.481488
 C          3.530305   -2.279575    3.517986
 C          3.385034   -1.479790    2.383566
 H          2.355906   -3.861273    0.198673
 H          2.595571   -5.255852    2.201183
 H          3.864270   -1.824271    4.447448
 H          3.601880   -0.418557    2.457456
 C         -2.962895    2.027195   -1.166284
 C         -2.679662    3.400797   -1.127178
 C         -2.822374    4.193942   -2.263910
 C         -3.255854    3.651344   -3.481502
 C         -3.530313    2.279558   -3.517991
 C         -3.385040    1.479778   -2.383568
 H         -2.355898    3.861271   -0.198691
 H         -2.595565    5.255839   -2.201208
 H         -3.864282    1.824250   -4.447450
 H         -3.601890    0.418547   -2.457451
 C         -3.107331    1.820841    1.399865
 C         -4.283061    2.582845    1.478548
 C         -4.703980    3.128345    2.689834
 C         -3.971061    2.936511    3.868867
 C         -2.804727    2.166949    3.788232
 C         -2.379823    1.615864    2.578619
 H         -4.873892    2.763615    0.585875
 H         -5.620610    3.712907    2.716548
 H         -2.215759    1.990940    4.685464
 H         -1.472922    1.020207    2.563560
 C          4.413543   -3.557391   -5.172534
 H          4.054354   -4.591393   -5.260928
 H          4.024475   -3.002700   -6.032449
 C          3.445383   -4.522316    4.700680
 H          3.347113   -3.943906    5.624996
 H          2.714383   -5.337422    4.728134
 C         -3.445388    4.522291   -4.700699
 H         -2.714410    5.337417   -4.728142
 H         -3.347087    3.943882   -5.625012
 C         -4.413534    3.557416    5.172523
 H         -4.024525    3.002686    6.032440
 H         -4.054280    4.591394    5.260945
 H          5.505524   -3.587241   -5.250826
 H          4.442923   -4.981295    4.707468
 H         -4.442941    4.981243   -4.707504
 H         -5.505515    3.587334    5.250787
 H        -15.006423    0.781998   -0.084295
 H         15.006423   -0.781998    0.084257
Cl        -13.962562    3.435865    0.001717
Cl         13.962562   -3.435864   -0.001779
       126
S1: Total Energy = -5726.46022614
 C          7.068960    1.597255    0.056841
 C          6.086350    2.611787    0.071925
 C          4.793450    2.108358    0.046151
 C          4.728415    0.691794    0.009098
 C          3.415915    0.212706   -0.001296
 C          2.480285    1.261062    0.019565
 C          1.152305    0.765498    0.009918
 C          1.234940   -0.668788   -0.044189
 C          0.093226   -1.434622   -0.049761
 S          6.324134   -0.020152    0.004626
 S          3.196386    2.855968    0.055440
 C          2.707222   -1.139479   -0.066713
 H          6.349913    3.662678    0.100692
 H          0.137410   -2.518633   -0.082841
 C         -7.068960   -1.597256   -0.056841
 C         -6.086350   -2.611788   -0.071926
 C         -4.793450   -2.108358   -0.046152
 C         -4.728415   -0.691795   -0.009099
 C         -3.415915   -0.212707    0.001295
 C         -2.480285   -1.261063   -0.019567
 C         -1.152305   -0.765499   -0.009919
 C         -1.234940    0.668787    0.044188
 C         -0.093227    1.434621    0.049759
 S         -6.324134    0.020151   -0.004628
 S         -3.196386   -2.855969   -0.055442
 C         -2.707222    1.139478    0.066712
 H         -6.349913   -3.662679   -0.100691
 H         -0.137410    2.518632    0.082839
 C          8.443104    1.949510    0.081806
 C          9.624701    1.225077    0.076884
 C          9.733095   -0.252174    0.035617
 O          8.819144   -1.069877    0.001605
 C         11.177823   -0.575759    0.043052
 C         11.761178   -1.831515    0.013399
 C         13.156972   -1.883844    0.028409
 C         13.926955   -0.717266    0.071669
 C         13.317207    0.540640    0.101273
 C         11.919080    0.620251    0.086907
 C         10.979935    1.767011    0.109811
 C         11.370966    3.105303    0.155947
 C         12.733319    3.524507    0.184203
 N         13.830470    3.920574    0.208758
 C         10.474920    4.213518    0.181935
 N          9.786869    5.156044    0.205265
 H          8.553310    3.027210    0.112484
 H         11.152687   -2.728627   -0.019690
 H         13.946017    1.419646    0.134261
 C         -8.443104   -1.949511   -0.081804
 C         -9.624701   -1.225077   -0.076882
 C         -9.733094    0.252173   -0.035618
 O         -8.819143    1.069877   -0.001609
 C        -11.177822    0.575759   -0.043056
 C        -11.761177    1.831515   -0.013407
 C        -13.156971    1.883845   -0.028418
 C        -13.926955    0.717267   -0.071674
 C        -13.317207   -0.540639   -0.101273
 C        -11.919080   -0.620250   -0.086907
 C        -10.979935   -1.767011   -0.109806
 C        -11.370966   -3.105303   -0.155937
 C        -12.733319   -3.524507   -0.184197
 N        -13.830471   -3.920574   -0.208754
 C        -10.474921   -4.213519   -0.181918
 N         -9.786871   -5.156045   -0.205241
 H         -8.553310   -3.027211   -0.112480
 H        -11.152686    2.728628    0.019679
 H        -13.946017   -1.419645   -0.134258
 C          3.107518   -1.820605   -1.395061
 C          4.279500   -2.588777   -1.469850
 C          4.702110   -3.134838   -2.680206
 C          3.974788   -2.937505   -3.861958
 C          2.812454   -2.161329   -3.785160
 C          2.386107   -1.609258   -2.576715
 H          4.865986   -2.773531   -0.575172
 H          5.615668   -3.724234   -2.704207
 H          2.228283   -1.980691   -4.684556
 H          1.483165   -1.007428   -2.564833
 C          2.955728   -2.023692    1.172379
 C          2.674548   -3.397796    1.135401
 C          2.813492   -4.187552    2.274891
 C          3.240995   -3.640960    3.492931
 C          3.513284   -2.268610    3.527099
 C          3.371518   -1.472087    2.390074
 H          2.355632   -3.861295    0.206748
 H          2.588539   -5.249930    2.214169
 H          3.842565   -1.810422    4.456773
 H          3.586004   -0.410209    2.461925
 C         -2.955728    2.023692   -1.172379
 C         -2.674558    3.397798   -1.135396
 C         -2.813504    4.187556   -2.274886
 C         -3.240997    3.640963   -3.492928
 C         -3.513276    2.268611   -3.527100
 C         -3.371509    1.472086   -2.390076
 H         -2.355650    3.861297   -0.206741
 H         -2.588559    5.249934   -2.214159
 H         -3.842550    1.810422   -4.456777
 H         -3.585987    0.410207   -2.461931
 C         -3.107518    1.820604    1.395061
 C         -4.279494    2.588782    1.469848
 C         -4.702105    3.134844    2.680204
 C         -3.974787    2.937504    3.861958
 C         -2.812458    2.161321    3.785162
 C         -2.386111    1.609250    2.576717
 H         -4.865978    2.773542    0.575169
 H         -5.615659    3.724246    2.704204
 H         -2.228291    1.980676    4.684559
 H         -1.483173    1.007413    2.564836
 C          4.419050   -3.559148   -5.164503
 H          4.054199   -4.590945   -5.255479
 H          4.036637   -3.001210   -6.025272
 C          3.426507   -4.508379    4.715147
 H          3.323710   -3.927659    5.637494
 H          2.696560   -5.324433    4.741627
 C         -3.426512    4.508383   -4.715143
 H         -2.696595    5.324465   -4.741600
 H         -3.323670    3.927672   -5.637491
 C         -4.419046    3.559149    5.164503
 H         -4.036699    3.001164    6.025272
 H         -4.054123    4.590917    5.255515
 H          5.511129   -3.595260   -5.238253
 H          4.424667   -4.965878    4.727104
 H         -4.424689    4.965843   -4.727122
 H         -5.511125    3.595336    5.238220
 H        -15.009056    0.790008   -0.082283
 H         15.009057   -0.790006    0.082278
Cl        -13.961687    3.442306    0.007559
Cl         13.961689   -3.442304   -0.007573
