       126
S0: Total Energy = -6645.69992080
 C          7.070561    1.657703    0.056998
 C          6.085731    2.662947    0.075832
 C          4.792609    2.151889    0.052030
 C          4.739165    0.740089    0.012986
 C          3.417790    0.248275    0.005651
 C          2.493038    1.280047    0.030134
 C          1.143328    0.769363    0.015289
 C          1.240929   -0.646937   -0.043985
 C          0.095700   -1.426434   -0.055849
 S          6.328486    0.036644    0.004393
 S          3.189253    2.879198    0.066037
 C          2.716401   -1.109459   -0.063568
 H          6.341810    3.716114    0.105415
 H          0.150690   -2.510070   -0.093566
 C         -7.070550   -1.657728   -0.056993
 C         -6.085717   -2.662968   -0.075823
 C         -4.792596   -2.151906   -0.052015
 C         -4.739156   -0.740105   -0.012969
 C         -3.417782   -0.248287   -0.005630
 C         -2.493028   -1.280057   -0.030112
 C         -1.143318   -0.769372   -0.015267
 C         -1.240920    0.646927    0.044009
 C         -0.095690    1.426425    0.055871
 S         -6.328480   -0.036667   -0.004382
 S         -3.189238   -2.879210   -0.066017
 C         -2.716393    1.109448    0.063590
 H         -6.341791   -3.716136   -0.105409
 H         -0.150679    2.510061    0.093587
 C          8.439268    2.018913    0.077885
 C          9.625887    1.307901    0.068279
 C          9.748491   -0.164718    0.027158
 O          8.847452   -0.995942   -0.004257
 C         11.197784   -0.470067    0.031256
 C         11.801161   -1.715150    0.000889
 C         13.196227   -1.774644    0.012582
 C         13.947156   -0.584831    0.055078
 C         13.323578    0.668095    0.085393
 C         11.929092    0.727952    0.072974
 C         10.976585    1.870905    0.096578
 C         11.357539    3.202672    0.137618
 C         12.719268    3.632578    0.160792
 N         13.812763    4.034868    0.180960
 C         10.449167    4.304474    0.162122
 N          9.750878    5.237549    0.183837
 H          8.539868    3.097986    0.109672
 H         11.204787   -2.620397   -0.031038
 H         13.948250    1.549389    0.117428
 C         -8.439255   -2.018942   -0.077889
 C         -9.625876   -1.307933   -0.068289
 C         -9.748485    0.164685   -0.027165
 O         -8.847447    0.995911    0.004259
 C        -11.197778    0.470030   -0.031273
 C        -11.801158    1.715112   -0.000906
 C        -13.196225    1.774602   -0.012610
 C        -13.947150    0.584787   -0.055114
 C        -13.323569   -0.668137   -0.085429
 C        -11.929083   -0.727990   -0.073000
 C        -10.976572   -1.870941   -0.096599
 C        -11.357523   -3.202709   -0.137647
 C        -12.719250   -3.632618   -0.160832
 N        -13.812745   -4.034912   -0.181009
 C        -10.449148   -4.304509   -0.162148
 N         -9.750856   -5.237582   -0.183845
 H         -8.539852   -3.098015   -0.109680
 H        -11.204787    2.620360    0.031027
 H        -13.948238   -1.549432   -0.117470
 C          3.121461   -1.797234   -1.387475
 C          4.306533   -2.545344   -1.459328
 C          4.734336   -3.099262   -2.664682
 C          3.998519   -2.930609   -3.845109
 C          2.822034   -2.175888   -3.771747
 C          2.389995   -1.617416   -2.567897
 H          4.899470   -2.709395   -0.564652
 H          5.658540   -3.672232   -2.685220
 H          2.229630   -2.018636   -4.670325
 H          1.474589   -1.034907   -2.557975
 C          2.969649   -1.994053    1.175277
 C          2.681557   -3.366868    1.140619
 C          2.826043   -4.158995    2.277962
 C          3.266492   -3.616175    3.492828
 C          3.546782   -2.245518    3.525290
 C          3.400560   -1.447180    2.389792
 H          2.352091   -3.827621    0.214213
 H          2.594623   -5.220140    2.217981
 H          3.886751   -1.789919    4.452549
 H          3.621696   -0.386677    2.460116
 C         -2.969644    1.994051   -1.175247
 C         -2.681851    3.366925   -1.140464
 C         -2.826352    4.159092   -2.277777
 C         -3.266525    3.616254   -3.492735
 C         -3.546527    2.245540   -3.525318
 C         -3.400290    1.447163   -2.389850
 H         -2.352616    3.827691   -0.213981
 H         -2.595166    5.220282   -2.217699
 H         -3.886281    1.789929   -4.452649
 H         -3.621201    0.386620   -2.460267
 C         -3.121456    1.797237    1.387488
 C         -4.306333    2.545667    1.459211
 C         -4.734157    3.099637    2.664534
 C         -3.998553    2.930723    3.845055
 C         -2.822257    2.175695    3.771819
 C         -2.390197    1.617171    2.568001
 H         -4.899091    2.709936    0.564456
 H         -5.658207    3.672858    2.684970
 H         -2.230020    2.018240    4.670471
 H         -1.474943    1.034422    2.558175
 C          4.447622   -3.561106   -5.142128
 H          4.100150   -4.600006   -5.219634
 H          4.052331   -3.020167   -6.008027
 C          3.457584   -4.485678    4.713008
 H          3.365185   -3.905105    5.636639
 H          2.723219   -5.297648    4.745181
 C         -3.457638    4.485791   -4.712888
 H         -2.723462    5.297938   -4.744895
 H         -3.364959    3.905300   -5.636543
 C         -4.447666    3.561275    5.142044
 H         -4.052701    3.020143    6.007971
 H         -4.099861    4.600055    5.219684
 H          5.539901   -3.579541   -5.220739
 H          4.453143   -4.949096    4.717261
 H         -4.453307    4.948970   -4.717263
 H         -5.539952    3.580068    5.220471
Cl        -15.690247    0.629135   -0.071438
Cl        -13.970452    3.334786    0.026215
Cl         15.690253   -0.629182    0.071388
Cl         13.970450   -3.334830   -0.026243
       126
T1: Total Energy = -6645.65527776
 C          7.049671    1.662555    0.053004
 C          6.049308    2.671510    0.071206
 C          4.768536    2.157788    0.045811
 C          4.714931    0.734391    0.005808
 C          3.415513    0.243609   -0.004507
 C          2.461652    1.285846    0.018977
 C          1.146140    0.777617    0.009280
 C          1.241969   -0.658824   -0.045988
 C          0.110380   -1.434263   -0.050491
 S          6.320615    0.037672   -0.001789
 S          3.162606    2.890044    0.057653
 C          2.719352   -1.115796   -0.071502
 H          6.304337    3.724428    0.101698
 H          0.164869   -2.517842   -0.083923
 C         -7.049687   -1.662542   -0.052967
 C         -6.049329   -2.671502   -0.071110
 C         -4.768555   -2.157787   -0.045657
 C         -4.714945   -0.734390   -0.005655
 C         -3.415525   -0.243614    0.004719
 C         -2.461667   -1.285855   -0.018734
 C         -1.146154   -0.777628   -0.009019
 C         -1.241982    0.658813    0.046248
 C         -0.110394    1.434252    0.050753
 S         -6.320625   -0.037663    0.001861
 S         -3.162627   -2.890050   -0.057437
 C         -2.719361    1.115790    0.071739
 H         -6.304363   -3.724419   -0.101614
 H         -0.164886    2.517832    0.084178
 C          8.412205    2.028138    0.076632
 C          9.606429    1.312307    0.068554
 C          9.728806   -0.162562    0.025569
 O          8.824989   -0.991151   -0.008718
 C         11.176796   -0.471144    0.031600
 C         11.779904   -1.715144    0.000621
 C         13.176454   -1.774367    0.014371
 C         13.924231   -0.584741    0.059369
 C         13.299399    0.669494    0.090382
 C         11.905826    0.728875    0.076005
 C         10.949973    1.869244    0.099750
 C         11.331031    3.208600    0.144010
 C         12.691041    3.637233    0.169595
 N         13.785719    4.038666    0.191786
 C         10.425705    4.310310    0.169603
 N          9.731586    5.247561    0.192553
 H          8.513728    3.106419    0.109005
 H         11.184380   -2.620901   -0.033351
 H         13.923737    1.550948    0.124436
 C         -8.412222   -2.028116   -0.076680
 C         -9.606443   -1.312278   -0.068685
 C         -9.728814    0.162593   -0.025738
 O         -8.824994    0.991179    0.008582
 C        -11.176801    0.471184   -0.031863
 C        -11.779904    1.715188   -0.000947
 C        -13.176453    1.774419   -0.014785
 C        -13.924234    0.584796   -0.059804
 C        -13.299408   -0.669443   -0.090753
 C        -11.905836   -0.728832   -0.076288
 C        -10.949988   -1.869207   -0.099951
 C        -11.331052   -3.208562   -0.144207
 C        -12.691062   -3.637187   -0.169862
 N        -13.785742   -4.038614   -0.192106
 C        -10.425730   -4.310276   -0.169733
 N         -9.731614   -5.247532   -0.192629
 H         -8.513750   -3.106397   -0.109049
 H        -11.184376    2.620942    0.033041
 H        -13.923748   -1.550893   -0.124829
 C          3.123612   -1.791982   -1.401560
 C          4.305264   -2.544762   -1.480042
 C          4.731068   -3.086001   -2.691528
 C          3.997397   -2.898851   -3.870862
 C          2.825179   -2.138228   -3.790374
 C          2.395326   -1.591406   -2.580596
 H          4.896792   -2.721858   -0.587094
 H          5.652086   -3.663612   -2.718156
 H          2.235502   -1.965949   -4.687843
 H          1.483960   -1.002571   -2.565734
 C          2.980859   -2.000362    1.164903
 C          2.710617   -3.376556    1.125389
 C          2.860276   -4.168436    2.262105
 C          3.287995   -3.621928    3.479998
 C          3.549447   -2.247592    3.516832
 C          3.397155   -1.449061    2.382465
 H          2.391758   -3.839995    0.196690
 H          2.643567   -5.232407    2.199142
 H          3.878556   -1.789255    4.446523
 H          3.603767   -0.385811    2.456839
 C         -2.980843    2.000378   -1.164656
 C         -2.710414    3.376535   -1.125201
 C         -2.860039    4.168401   -2.261933
 C         -3.287902    3.621914   -3.479783
 C         -3.549531    2.247610   -3.516563
 C         -3.397274    1.449094   -2.382182
 H         -2.391427    3.839959   -0.196538
 H         -2.643184    5.232346   -2.199015
 H         -3.878752    1.789288   -4.446222
 H         -3.604022    0.385866   -2.456511
 C         -3.123632    1.791939    1.401816
 C         -4.305440    2.544466    1.480390
 C         -4.731240    3.085655    2.691899
 C         -3.997412    2.898702    3.871168
 C         -2.825042    2.138325    3.790590
 C         -2.395191    1.591555    2.580788
 H         -4.897095    2.721404    0.587496
 H         -5.652380    3.663069    2.718600
 H         -2.235240    1.966201    4.688007
 H         -1.483701    1.002913    2.565855
 C          4.445340   -3.515442   -5.174658
 H          4.094721   -4.552331   -5.263467
 H          4.051885   -2.963664   -6.034424
 C          3.485108   -4.491189    4.699165
 H          3.379538   -3.914151    5.623521
 H          2.762780   -5.314004    4.725382
 C         -3.484979    4.491164   -4.698964
 H         -2.762581    5.313917   -4.725221
 H         -3.379487    3.914097   -5.623309
 C         -4.445358    3.515241    5.174987
 H         -4.051751    2.963539    6.034733
 H         -4.094893    4.552187    5.263756
 H          5.537541   -3.536262   -5.252672
 H          4.487455   -4.939533    4.707063
 H         -4.487288    4.939593   -4.706841
 H         -5.537556    3.535891    5.253081
Cl        -15.668054    0.625959   -0.078807
Cl        -13.951191    3.335668    0.024731
Cl         15.668052   -0.625893    0.078263
Cl         13.951199   -3.335611   -0.025227
       126
S1: Total Energy = -6645.63854095
 C          7.053413    1.661270    0.054601
 C          6.061914    2.666975    0.074323
 C          4.773570    2.151771    0.048870
 C          4.721764    0.734893    0.007726
 C          3.413502    0.243627   -0.002640
 C          2.468776    1.283440    0.022013
 C          1.145050    0.775720    0.011648
 C          1.240911   -0.657481   -0.046795
 C          0.106093   -1.433667   -0.054263
 S          6.323361    0.037458   -0.001336
 S          3.169890    2.884505    0.062156
 C          2.717285   -1.114766   -0.070919
 H          6.315875    3.720157    0.105723
 H          0.160123   -2.517094   -0.090601
 C         -7.053431   -1.661287   -0.054700
 C         -6.061938   -2.666997   -0.074485
 C         -4.773591   -2.151797   -0.049113
 C         -4.721779   -0.734920   -0.007971
 C         -3.413516   -0.243658    0.002329
 C         -2.468791   -1.283472   -0.022350
 C         -1.145065   -0.775751   -0.012005
 C         -1.240926    0.657451    0.046435
 C         -0.106108    1.433637    0.053905
 S         -6.323370   -0.037478    0.001201
 S         -3.169912   -2.884535   -0.062482
 C         -2.717300    1.114736    0.070571
 H         -6.315906   -3.720178   -0.105868
 H         -0.160138    2.517064    0.090250
 C          8.424145    2.026369    0.078301
 C          9.612377    1.312687    0.069147
 C          9.733211   -0.163372    0.024243
 O          8.827695   -0.990110   -0.011323
 C         11.179993   -0.472386    0.030624
 C         11.781562   -1.716831   -0.001752
 C         13.178422   -1.778299    0.012928
 C         13.927631   -0.588876    0.060322
 C         13.305610    0.665950    0.092622
 C         11.910404    0.728864    0.077299
 C         10.961936    1.868612    0.101655
 C         11.342254    3.209387    0.147250
 C         12.701531    3.638242    0.174959
 N         13.797015    4.038677    0.199001
 C         10.436426    4.309681    0.172176
 N          9.739518    5.245561    0.194477
 H          8.524537    3.104896    0.112360
 H         11.184750   -2.621695   -0.037378
 H         13.930998    1.546608    0.128273
 C         -8.424168   -2.026375   -0.078294
 C         -9.612386   -1.312675   -0.069034
 C         -9.733184    0.163386   -0.024068
 O         -8.827644    0.990100    0.011460
 C        -11.179959    0.472429   -0.030247
 C        -11.781499    1.716885    0.002273
 C        -13.178360    1.778382   -0.012227
 C        -13.927599    0.588978   -0.059590
 C        -13.305608   -0.665860   -0.092037
 C        -11.910402   -0.728803   -0.076894
 C        -10.961960   -1.868569   -0.101433
 C        -11.342317   -3.209333   -0.147074
 C        -12.701609   -3.638149   -0.174637
 N        -13.797109   -4.038549   -0.198568
 C        -10.436523   -4.309649   -0.172209
 N         -9.739649   -5.245550   -0.194666
 H         -8.524575   -3.104901   -0.112347
 H        -11.184665    2.621735    0.037872
 H        -13.931018   -1.546504   -0.127655
 C          3.123507   -1.788947   -1.401008
 C          4.302071   -2.547005   -1.477488
 C          4.729431   -3.086327   -2.689063
 C          4.000619   -2.892030   -3.870565
 C          2.831825   -2.125971   -3.791997
 C          2.400609   -1.580535   -2.582160
 H          4.889724   -2.729308   -0.583073
 H          5.647830   -3.668107   -2.714373
 H          2.246276   -1.948057   -4.691006
 H          1.492655   -0.986303   -2.569044
 C          2.974130   -1.999184    1.166347
 C          2.707151   -3.375928    1.126215
 C          2.853555   -4.166636    2.264217
 C          3.274616   -3.618306    3.483621
 C          3.532599   -2.243155    3.520944
 C          3.383311   -1.445789    2.385606
 H          2.393621   -3.840799    0.196425
 H          2.639646   -5.231125    2.201069
 H          3.856334   -1.783563    4.451871
 H          3.586473   -0.381849    2.460026
 C         -2.974160    1.999124   -1.166717
 C         -2.707076    3.375851   -1.126660
 C         -2.853485    4.166520   -2.264688
 C         -3.274653    3.618167   -3.484046
 C         -3.532737    2.243035   -3.521296
 C         -3.383445    1.445706   -2.385931
 H         -2.393458    3.840738   -0.196909
 H         -2.639493    5.230995   -2.201600
 H         -3.856554    1.783425   -4.452184
 H         -3.586687    0.381778   -2.460295
 C         -3.123501    1.788938    1.400655
 C         -4.302173    2.546820    1.477210
 C         -4.729496    3.086140    2.688799
 C         -4.000544    2.892010    3.870241
 C         -2.831647    2.126115    3.791601
 C         -2.400466    1.580682    2.581751
 H         -4.889944    2.728984    0.582845
 H         -5.647980    3.667784    2.714168
 H         -2.245988    1.948329    4.690565
 H         -1.492429    0.986578    2.568577
 C          4.451144   -3.506298   -5.174423
 H          4.117598   -4.549318   -5.256694
 H          4.043767   -2.964575   -6.033997
 C          3.468771   -4.486033    4.704243
 H          3.342240   -3.911879    5.627789
 H          2.759069   -5.319937    4.719853
 C         -3.468811    4.485857   -4.704694
 H         -2.759048    5.319707   -4.720379
 H         -3.342372    3.911654   -5.628223
 C         -4.451034    3.506276    5.174112
 H         -4.043497    2.964654    6.033674
 H         -4.117634    4.549349    5.256300
 H          5.543145   -3.509430   -5.258585
 H          4.477894   -4.918494    4.724901
 H         -4.477903    4.918392   -4.725316
 H         -5.543028    3.509251    5.258378
Cl        -15.671433    0.633659   -0.079590
Cl        -13.950990    3.340445    0.029291
Cl         15.671463   -0.633521    0.080550
Cl         13.951089   -3.340348   -0.028408
