       126
S0: Total Energy = -4029.30356028
 C          7.202513    1.233949    0.054584
 C          6.330803    2.338255    0.067339
 C          4.990190    1.970310    0.043395
 C          4.781434    0.577875    0.009237
 C          3.425349    0.170247    0.002327
 C          2.524702    1.216474    0.023774
 C          1.164199    0.740733    0.012916
 C          1.223437   -0.677719   -0.039121
 C          0.058904   -1.428009   -0.049517
 S          6.289051   -0.290299    0.007062
 C          2.686408   -1.173129   -0.057139
 H          6.698595    3.357934    0.093736
 H          0.087225   -2.512815   -0.082429
 C         -7.202512   -1.233904   -0.054564
 C         -6.330801   -2.338209   -0.067319
 C         -4.990187   -1.970267   -0.043385
 C         -4.781430   -0.577833   -0.009233
 C         -3.425345   -0.170207   -0.002331
 C         -2.524698   -1.216435   -0.023779
 C         -1.164195   -0.740695   -0.012926
 C         -1.223432    0.677758    0.039109
 C         -0.058900    1.428048    0.049507
 S         -6.289046    0.290344   -0.007050
 C         -2.686403    1.173169    0.057127
 H         -6.698594   -3.357888   -0.093711
 H         -0.087221    2.512854    0.082420
 C          8.605505    1.444500    0.076596
 C          9.705111    0.609092    0.070388
 C          9.667719   -0.870968    0.029108
 O          8.674966   -1.592386    0.002195
 C         11.072045   -1.335369    0.025611
 C         11.539058   -2.642338   -0.009586
 C         12.921099   -2.846714   -0.006066
 C         13.792380   -1.750814    0.032334
 C         13.316647   -0.435308    0.068119
 C         11.932961   -0.222392    0.064651
 C         11.112294    1.017354    0.096958
 C         11.633691    2.301156    0.146280
 C         13.033420    2.586141    0.165470
 N         14.161426    2.878397    0.182832
 C         10.848514    3.493702    0.186225
 N         10.254354    4.496097    0.221107
 H          8.821861    2.506597    0.104066
 H         10.837462   -3.470302   -0.038839
 H         13.323552   -3.854964   -0.033061
 H         14.865032   -1.920560    0.034582
 H         14.025483    0.380672    0.096943
 C         -8.605504   -1.444464   -0.076570
 C         -9.705132   -0.609083   -0.070363
 C         -9.667802    0.870978   -0.029088
 O         -8.675081    1.592442   -0.002220
 C        -11.072147    1.335322   -0.025624
 C        -11.539211    2.642274    0.009534
 C        -12.921260    2.846596    0.005997
 C        -13.792497    1.750660   -0.032381
 C        -13.316711    0.435172   -0.068129
 C        -11.933017    0.222310   -0.064645
 C        -11.112295   -1.017402   -0.096923
 C        -11.633618   -2.301234   -0.146225
 C        -13.033327   -2.586315   -0.165414
 N        -14.161308   -2.878665   -0.182775
 C        -10.848356   -3.493726   -0.186149
 N        -10.254100   -4.496064   -0.221015
 H         -8.821844   -2.506566   -0.104032
 H        -10.837649    3.470266    0.038773
 H        -13.323754    3.854830    0.032964
 H        -14.865156    1.920363   -0.034642
 H        -14.025517   -0.380835   -0.096940
 C          3.065011   -1.880736   -1.378756
 C          4.189111   -2.717371   -1.445242
 C          4.588454   -3.290194   -2.652844
 C          3.884118   -3.052237   -3.839788
 C          2.768575   -2.207911   -3.772283
 C          2.365561   -1.631648   -2.567536
 H          4.757358   -2.935999   -0.546740
 H          5.466015   -3.932402   -2.668609
 H          2.202648   -1.994649   -4.676409
 H          1.498349   -0.979379   -2.561362
 C          2.917282   -2.051932    1.190056
 C          2.578917   -3.414219    1.174498
 C          2.699609   -4.197311    2.321051
 C          3.164750   -3.655819    3.527626
 C          3.494501   -2.295844    3.541764
 C          3.372582   -1.506544    2.396677
 H          2.228203   -3.874226    0.255606
 H          2.429220   -5.249962    2.275277
 H          3.854296   -1.841300    4.462023
 H          3.631279   -0.453967    2.453294
 C         -2.917279    2.051965   -1.190074
 C         -2.578864    3.414240   -1.174544
 C         -2.699554    4.197320   -2.321105
 C         -3.164744    3.655828   -3.527661
 C         -3.494543    2.295864   -3.541773
 C         -3.372625    1.506576   -2.396677
 H         -2.228110    3.874247   -0.255667
 H         -2.429126    5.249962   -2.275352
 H         -3.854374    1.841320   -4.462017
 H         -3.631359    0.454007   -2.453274
 C         -3.065004    1.880778    1.378743
 C         -4.189168    2.717325    1.445261
 C         -4.588502    3.290141    2.652870
 C         -3.884095    3.052264    3.839787
 C         -2.768491    2.208023    3.772251
 C         -2.365484    1.631766    2.567498
 H         -4.757475    2.935887    0.546781
 H         -5.466114    3.932280    2.668661
 H         -2.202507    1.994822    4.676356
 H         -1.498223    0.979564    2.561299
 C          4.298192   -3.701222   -5.139681
 H          3.811387   -4.677275   -5.269123
 H          4.021495   -3.084149   -6.001092
 C          3.329077   -4.516791    4.758052
 H          3.270695   -3.920461    5.674508
 H          2.559994   -5.295248    4.807954
 C         -3.329071    4.516788   -4.758096
 H         -2.559997    5.295254   -4.807997
 H         -3.270674    3.920451   -5.674546
 C         -4.298163    3.701243    5.139686
 H         -4.021385    3.084207    6.001097
 H         -3.811424    4.677334    5.269089
 H          5.379478   -3.871286   -5.175148
 H          4.303409   -5.023541    4.760000
 H         -4.303410    5.023524   -4.760057
 H         -5.379460    3.871229    5.175194
Se         -3.328321   -2.957571   -0.056082
Se          3.328322    2.957612    0.056086
       126
T1: Total Energy = -4029.25907543
 C          7.182386   -1.235063   -0.051307
 C          6.293593   -2.345566   -0.065037
 C          4.967098   -1.974581   -0.038919
 C          4.755206   -0.568138   -0.001966
 C          3.424237   -0.161839    0.007684
 C          2.492904   -1.221926   -0.013544
 C          1.168456   -0.748615   -0.007433
 C          1.223935    0.690964    0.042087
 C          0.073274    1.436259    0.046002
 S          6.281021    0.295639    0.000846
 C          2.688593    1.182551    0.066168
 H          6.660777   -3.364993   -0.094003
 H          0.100525    2.520954    0.075698
 C         -7.182373    1.235096    0.051297
 C         -6.293574    2.345594    0.065037
 C         -4.967081    1.974602    0.038921
 C         -4.755195    0.568158    0.001958
 C         -3.424228    0.161853   -0.007676
 C         -2.492892    1.221938    0.013562
 C         -1.168444    0.748625    0.007460
 C         -1.223924   -0.690953   -0.042066
 C         -0.073263   -1.436249   -0.045973
 S         -6.281016   -0.295610   -0.000873
 C         -2.688583   -1.182538   -0.066158
 H         -6.660753    3.365022    0.094017
 H         -0.100513   -2.520943   -0.075669
 C          8.576750   -1.452411   -0.076534
 C          9.685831   -0.612281   -0.071057
 C          9.650083    0.869185   -0.026967
 O          8.656254    1.589773    0.005031
 C         11.053750    1.334544   -0.028062
 C         11.522705    2.639908    0.007095
 C         12.906249    2.842424   -0.001387
 C         13.773215    1.744706   -0.044520
 C         13.293917    0.428781   -0.080242
 C         11.911018    0.218711   -0.071863
 C         11.083844   -1.018443   -0.102304
 C         11.604424   -2.309614   -0.153992
 C         13.002128   -2.595353   -0.178115
 N         14.130677   -2.888262   -0.199584
 C         10.820530   -3.501043   -0.191355
 N         10.229333   -4.506151   -0.224338
 H          8.793196   -2.513794   -0.106271
 H         10.822836    3.469302    0.040099
 H         13.310745    3.849847    0.025419
 H         14.846500    1.911073   -0.050673
 H         14.001040   -0.388597   -0.112857
 C         -8.576736    1.452450    0.076539
 C         -9.685820    0.612326    0.071049
 C         -9.650081   -0.869140    0.026919
 O         -8.656255   -1.589733   -0.005088
 C        -11.053750   -1.334491    0.027996
 C        -11.522713   -2.639851   -0.007207
 C        -12.906259   -2.842359    0.001262
 C        -13.773218   -1.744637    0.044429
 C        -13.293912   -0.428716    0.080197
 C        -11.911012   -0.218654    0.071831
 C        -11.083832    1.018494    0.102314
 C        -11.604404    2.309665    0.154055
 C        -13.002107    2.595409    0.178191
 N        -14.130656    2.888319    0.199671
 C        -10.820504    3.501088    0.191470
 N        -10.229303    4.506193    0.224499
 H         -8.793177    2.513834    0.106302
 H        -10.822849   -3.469248   -0.040236
 H        -13.310761   -3.849779   -0.025579
 H        -14.846504   -1.910998    0.050572
 H        -14.001030    0.388665    0.112836
 C          3.065600    1.878666    1.394165
 C          4.187834    2.717084    1.469246
 C          4.584639    3.277538    2.683099
 C          3.880199    3.024687    3.867312
 C          2.767296    2.177770    3.790744
 C          2.367137    1.612722    2.579821
 H          4.756379    2.946246    0.573712
 H          5.460385    3.921803    2.706393
 H          2.202240    1.952487    4.692367
 H          1.502599    0.956905    2.567357
 C          2.926467    2.063685   -1.177489
 C          2.601543    3.429048   -1.155722
 C          2.726087    4.213994   -2.300468
 C          3.181515    3.671282   -3.510322
 C          3.496853    2.307913   -3.530235
 C          3.370262    1.516332   -2.387382
 H          2.258821    3.889877   -0.234283
 H          2.466995    5.269206   -2.250593
 H          3.848263    1.852483   -4.453172
 H          3.618371    0.461394   -2.448843
 C         -2.926472   -2.063686    1.177484
 C         -2.601902   -3.429130    1.155566
 C         -2.726471   -4.214129    2.300274
 C         -3.181578   -3.671389    3.510236
 C         -3.496575   -2.307943    3.530295
 C         -3.369958   -1.516311    2.387481
 H         -2.259447   -3.889980    0.234037
 H         -2.467656   -5.269403    2.250280
 H         -3.847735   -1.852494    4.453317
 H         -3.617799   -0.461317    2.449054
 C         -3.065582   -1.878665   -1.394149
 C         -4.187561   -2.717435   -1.469100
 C         -4.584384   -3.277940   -2.682923
 C         -3.880211   -3.024797   -3.867233
 C         -2.767558   -2.177540   -3.790790
 C         -2.367382   -1.612441   -2.579896
 H         -4.755882   -2.946841   -0.573485
 H         -5.459929   -3.922483   -2.706115
 H         -2.202712   -1.952030   -4.692488
 H         -1.503043   -0.956360   -2.567530
 C          4.292557    3.660389    5.174049
 H          3.805141    4.634920    5.312049
 H          4.014755    3.034715    6.028778
 C          3.350352    4.534351   -4.738469
 H          3.282236    3.941748   -5.656596
 H          2.589779    5.321385   -4.782680
 C         -3.350449   -4.534505    4.738345
 H         -2.590098   -5.321765    4.782359
 H         -3.281996   -3.941994    5.656507
 C         -4.292577   -3.660550   -5.173943
 H         -4.015109   -3.034737   -6.028678
 H         -3.804876   -4.634918   -5.312079
 H          5.373670    3.830436    5.212365
 H          4.330249    5.030113   -4.741871
 H         -4.330491   -5.029981    4.741884
 H         -5.373642   -3.830935   -5.212096
Se         -3.302753    2.967358    0.050086
Se          3.302773   -2.967343   -0.050070
       126
S1: Total Energy = -4029.24066605
 C          7.186288   -1.235908   -0.053163
 C          6.306181   -2.342267   -0.067413
 C          4.971791   -1.970182   -0.040991
 C          4.762651   -0.570700   -0.003535
 C          3.421748   -0.164270    0.006269
 C          2.500732   -1.220575   -0.015591
 C          1.166603   -0.747027   -0.009259
 C          1.223162    0.688343    0.042587
 C          0.068968    1.435258    0.048528
 S          6.283838    0.293432   -0.000538
 C          2.686879    1.179436    0.065650
 H          6.672182   -3.362093   -0.096795
 H          0.096447    2.519784    0.080477
 C         -7.186288    1.235907    0.053171
 C         -6.306180    2.342266    0.067372
 C         -4.971791    1.970180    0.040907
 C         -4.762653    0.570697    0.003450
 C         -3.421750    0.164267   -0.006401
 C         -2.500734    1.220573    0.015437
 C         -1.166604    0.747026    0.009105
 C         -1.223163   -0.688344   -0.042737
 C         -0.068970   -1.435259   -0.048680
 S         -6.283841   -0.293433    0.000523
 C         -2.686879   -1.179439   -0.065799
 H         -6.672179    3.362092    0.096760
 H         -0.096449   -2.519785   -0.080632
 C          8.588994   -1.450903   -0.078489
 C          9.692126   -0.612160   -0.072514
 C          9.652919    0.870498   -0.026760
 O          8.656717    1.587894    0.005577
 C         11.054754    1.338167   -0.026596
 C         11.520702    2.644314    0.010053
 C         12.904072    2.850648    0.002201
 C         13.773451    1.754345   -0.041932
 C         13.298102    0.437386   -0.079204
 C         11.914693    0.222302   -0.071338
 C         11.094971   -1.014793   -0.103657
 C         11.617230   -2.307248   -0.156759
 C         13.014528   -2.591309   -0.178611
 N         14.144376   -2.881439   -0.198149
 C         10.834464   -3.498143   -0.197866
 N         10.241764   -4.502978   -0.233866
 H          8.805313   -2.512451   -0.108886
 H         10.818665    3.471896    0.043641
 H         13.306272    3.858954    0.030185
 H         14.846384    1.923540   -0.047694
 H         14.007090   -0.378367   -0.112616
 C         -8.588993    1.450902    0.078566
 C         -9.692125    0.612159    0.072664
 C         -9.652924   -0.870498    0.026892
 O         -8.656725   -1.587898   -0.005450
 C        -11.054760   -1.338165    0.026830
 C        -11.520712   -2.644311   -0.009782
 C        -12.904082   -2.850643   -0.001853
 C        -13.773456   -1.754339    0.042323
 C        -13.298103   -0.437380    0.079558
 C        -11.914695   -0.222298    0.071615
 C        -11.094967    1.014795    0.103886
 C        -11.617215    2.307252    0.157032
 C        -13.014510    2.591323    0.178963
 N        -14.144354    2.881464    0.198579
 C        -10.834439    3.498142    0.198080
 N        -10.241724    4.502970    0.234047
 H         -8.805310    2.512450    0.108962
 H        -10.818678   -3.471895   -0.043409
 H        -13.306285   -3.858948   -0.029810
 H        -14.846390   -1.923532    0.048148
 H        -14.007088    0.378374    0.113009
 C          3.065882    1.873341    1.393898
 C          4.185317    2.715917    1.467488
 C          4.583730    3.274218    2.681494
 C          3.883841    3.015258    3.867517
 C          2.774160    2.164163    3.792312
 C          2.372634    1.600575    2.581142
 H          4.750200    2.949460    0.570808
 H          5.457164    3.921614    2.703921
 H          2.213096    1.934010    4.695123
 H          1.511486    0.940188    2.570012
 C          2.921510    2.060180   -1.178642
 C          2.599379    3.426169   -1.156484
 C          2.722137    4.209961   -2.302210
 C          3.172975    3.665417   -3.513010
 C          3.485423    2.301256   -3.533122
 C          3.360353    1.510722   -2.389556
 H          2.260553    3.888417   -0.234312
 H          2.465425    5.265722   -2.252393
 H          3.833176    1.844604   -4.456799
 H          3.605610    0.455075   -2.450893
 C         -2.921502   -2.060191    1.178488
 C         -2.599287   -3.426160    1.156355
 C         -2.722038   -4.209948    2.302085
 C         -3.172952   -3.665418    3.512863
 C         -3.485481   -2.301274    3.532950
 C         -3.360417   -1.510745    2.389382
 H         -2.260397   -3.888395    0.234201
 H         -2.465260   -5.265693    2.252288
 H         -3.833292   -1.844634    4.456611
 H         -3.605738   -0.455112    2.450699
 C         -3.065887   -1.873337   -1.394051
 C         -4.185257   -2.716004   -1.467607
 C         -4.583686   -3.274307   -2.681606
 C         -3.883879   -3.015258   -3.867659
 C         -2.774263   -2.164075   -3.792488
 C         -2.372721   -1.600486   -2.581323
 H         -4.750073   -2.949619   -0.570903
 H         -5.457068   -3.921774   -2.704005
 H         -2.213265   -1.933853   -4.695321
 H         -1.511627   -0.940029   -2.570222
 C          4.299087    3.648944    5.174167
 H          3.841137    4.639621    5.297210
 H          3.991090    3.039674    6.030226
 C          3.340271    4.527212   -4.742156
 H          3.261256    3.935296   -5.659848
 H          2.585881    5.320395   -4.781033
 C         -3.340239   -4.527211    4.742012
 H         -2.585791   -5.320335    4.780933
 H         -3.261313   -3.935278    5.659700
 C         -4.299139   -3.648945   -5.174303
 H         -3.991227   -3.039635   -6.030363
 H         -3.841123   -4.639587   -5.297390
 H          5.384489    3.785748    5.225014
 H          4.324195    5.014824   -4.752043
 H         -4.324126   -5.014898    4.751858
 H         -5.384534   -3.785827   -5.225102
Se         -3.309739    2.962923    0.052944
Se          3.309739   -2.962925   -0.053098
