       126
S0: Total Energy = -6397.62721699
 C         -7.224150   -0.832588    0.046567
 C         -6.289674   -1.886026    0.059480
 C         -4.965991   -1.455348    0.044854
 C         -4.868798   -0.062703    0.014924
 C         -3.485467    0.303250   -0.005521
 C         -2.704183   -0.835589   -0.013844
 C         -1.303955   -0.547354   -0.002888
 C         -1.071643    0.869832    0.005228
 C          0.199544    1.419430    0.009433
 S         -6.391302    0.741710    0.006015
 C         -3.572263   -2.105972    0.020178
 S         -2.584568    1.795951    0.008356
 H         -6.611308   -2.921567    0.079219
 C          7.224135    0.832551   -0.046583
 C          6.289660    1.885989   -0.059541
 C          4.965976    1.455311   -0.044950
 C          4.868780    0.062667   -0.015020
 C          3.485448   -0.303283    0.005416
 C          2.704165    0.835557    0.013731
 C          1.303937    0.547322    0.002771
 C          1.071625   -0.869864   -0.005345
 C         -0.199562   -1.419462   -0.009549
 S          6.391284   -0.741747   -0.006095
 C          3.572249    2.105938   -0.020294
 S          2.584549   -1.795984   -0.008472
 H          6.611293    2.921529   -0.079272
 C         -8.617987   -1.102899    0.065060
 C         -9.749053   -0.318395    0.055909
 C         -9.795837    1.167648    0.018064
 O         -8.852144    1.950586   -0.005623
 C        -11.225255    1.533563    0.014318
 C        -12.007508    2.702008   -0.013242
 C        -13.379612    2.420087    0.000303
 C        -11.984911    0.375975    0.048662
 C        -11.138338   -0.808048    0.077886
 C        -11.622479   -2.107387    0.119995
 C        -13.024802   -2.368562    0.135246
 N        -14.169032   -2.591566    0.148308
 C        -10.811260   -3.278802    0.153751
 N        -10.184696   -4.261539    0.182792
 H         -8.791657   -2.173924    0.090811
 C          8.617973    1.102869   -0.065013
 C          9.749052    0.318383   -0.055802
 C          9.795875   -1.167656   -0.017830
 O          8.852204   -1.950619    0.005873
 C         11.225302   -1.533532   -0.013995
 C         12.007585   -2.701959    0.013479
 C         13.379682   -2.420006   -0.000166
 C         11.984928   -0.375927   -0.048431
 C         11.138324    0.808070   -0.077754
 C         11.622423    2.107422   -0.119954
 C         13.024737    2.368647   -0.135131
 N         14.168959    2.591695   -0.148128
 C         10.811160    3.278800   -0.153901
 N         10.184550    4.261504   -0.183100
 H          8.791633    2.173896   -0.090770
 C         -3.465620   -2.967595   -1.254336
 C         -2.790119   -2.532917   -2.398350
 C         -2.776270   -3.308150   -3.561632
 C         -3.435531   -4.538605   -3.625232
 C         -4.118049   -4.969501   -2.476906
 C         -4.133799   -4.202315   -1.316356
 H         -2.270550   -1.580609   -2.396143
 H         -2.240371   -2.941679   -4.434173
 H         -4.646340   -5.920261   -2.491964
 H         -4.664397   -4.574015   -0.444287
 C         -3.258962   -2.891588    1.316253
 C         -3.781659   -2.470771    2.547600
 C         -3.446352   -3.124024    3.731312
 C         -2.575509   -4.222644    3.736070
 C         -2.047899   -4.634118    2.507595
 C         -2.381493   -3.982778    1.318383
 H         -4.457685   -1.621856    2.586762
 H         -3.871278   -2.773153    4.669182
 H         -1.365171   -5.480148    2.473707
 H         -1.960297   -4.342899    0.385212
 C          3.258963    2.891545   -1.316379
 C          3.781624    2.470690   -2.547728
 C          3.446324    3.123941   -3.731444
 C          2.575528    4.222597   -3.736204
 C          2.047955    4.634111   -2.507725
 C          2.381541    3.982774   -1.318510
 H          4.457615    1.621747   -2.586889
 H          3.871222    2.773040   -4.669315
 H          1.365265    5.480171   -2.473838
 H          1.960379    4.342929   -0.385336
 C          3.465595    2.967574    1.254209
 C          2.790099    2.532899    2.398227
 C          2.776240    3.308143    3.561501
 C          3.435486    4.538607    3.625089
 C          4.117998    4.969501    2.476759
 C          4.133758    4.202304    1.316216
 H          2.270541    1.580584    2.396028
 H          2.240344    2.941675    4.434045
 H          4.646276    5.920268    2.491807
 H          4.664350    4.574002    0.444143
 C         -3.406029   -5.387129   -4.874509
 H         -3.019558   -4.824919   -5.730249
 H         -2.766211   -6.269221   -4.741498
 C         -2.241480   -4.948141    5.018041
 H         -1.298172   -5.497197    4.933019
 H         -2.156747   -4.253376    5.860746
 C          2.241509    4.948090   -5.018179
 H          2.156725    4.253316   -5.860872
 H          1.298230    5.497194   -4.933147
 C          3.405973    5.387143    4.874357
 H          2.766140    6.269223    4.741340
 H          3.019514    4.824935    5.730104
 H          4.406377    5.753162    5.132677
 H          3.021881    5.676025   -5.277054
 H         -3.021821   -5.676119    5.276889
 H         -4.406439   -5.753129   -5.132834
 H          0.348201    2.493031    0.012058
 H         -0.348220   -2.493063   -0.012175
 S         13.702200   -0.696010   -0.047543
 S        -13.702175    0.696098    0.047643
 S         11.719918   -4.416481    0.060389
 S        -11.719797    4.416527   -0.059973
 C         14.204436   -3.578258    0.027043
 C        -14.204337    3.578362   -0.026850
 H         15.287587   -3.576191    0.022274
 H        -15.287488    3.576320   -0.022141
 C         13.443726   -4.716545    0.060760
 C        -13.443598    4.716634   -0.060369
 H        -13.797158    5.739107   -0.085884
 H         13.797313   -5.739007    0.086356
       126
T1: Total Energy = -6397.58306711
 C          7.206205   -0.823787   -0.041900
 C          6.255089   -1.880822   -0.054922
 C          4.945972   -1.446890   -0.035166
 C          4.845896   -0.036123   -0.005275
 C          3.492660    0.326367    0.008914
 C          2.681919   -0.833980    0.014229
 C          1.311430   -0.545521    0.002143
 C          1.069299    0.880779   -0.000993
 C         -0.189638    1.425730   -0.003960
 S          6.387318    0.762119    0.000380
 C          3.553613   -2.102275   -0.015017
 S          2.587650    1.811479    0.001724
 H          6.574402   -2.916657   -0.076799
 C         -7.206214    0.823744    0.041968
 C         -6.255105    1.880785    0.055008
 C         -4.945985    1.446863    0.035224
 C         -4.845900    0.036097    0.005308
 C         -3.492663   -0.326385   -0.008907
 C         -2.681926    0.833966   -0.014219
 C         -1.311435    0.545509   -0.002150
 C         -1.069303   -0.880792    0.000980
 C          0.189635   -1.425743    0.003948
 S         -6.387317   -0.762155   -0.000339
 C         -3.553630    2.102256    0.015057
 S         -2.587650   -1.811495   -0.001746
 H         -6.574425    2.916617    0.076908
 C          8.589885   -1.104023   -0.061640
 C          9.733056   -0.319418   -0.053220
 C          9.785513    1.170287   -0.013958
 O          8.842320    1.953727    0.011533
 C         11.214196    1.532534   -0.011834
 C         12.004665    2.696259    0.015824
 C         13.374332    2.405917   -0.000088
 C         11.965364    0.369455   -0.048707
 C         11.110138   -0.811962   -0.077745
 C         11.591301   -2.119067   -0.121993
 C         12.990806   -2.384958   -0.139964
 N         14.134875   -2.612733   -0.155353
 C         10.777648   -3.286694   -0.155333
 N         10.148757   -4.268930   -0.184186
 H          8.760912   -2.174951   -0.088069
 C         -8.589897    1.103971    0.061708
 C         -9.733062    0.319359    0.053253
 C         -9.785509   -1.170345    0.013951
 O         -8.842311   -1.953779   -0.011527
 C        -11.214190   -1.532601    0.011760
 C        -12.004651   -2.696330   -0.015950
 C        -13.374320   -2.405996   -0.000075
 C        -11.965366   -0.369527    0.048638
 C        -11.110148    0.811894    0.077746
 C        -11.591320    2.118995    0.122021
 C        -12.990827    2.384878    0.139936
 N        -14.134898    2.612647    0.155277
 C        -10.777675    3.286624    0.155455
 N        -10.148789    4.268862    0.184385
 H         -8.760931    2.174897    0.088156
 C          3.445000   -2.965097    1.258839
 C          2.783404   -2.523647    2.408283
 C          2.769973   -3.299285    3.571042
 C          3.417956   -4.536139    3.629129
 C          4.088830   -4.972416    2.476038
 C          4.103415   -4.205215    1.315507
 H          2.274878   -1.565279    2.411313
 H          2.244863   -2.927707    4.447897
 H          4.609137   -5.927518    2.487125
 H          4.625979   -4.580798    0.440438
 C          3.249772   -2.884624   -1.314628
 C          3.781140   -2.458754   -2.540529
 C          3.455091   -3.108693   -3.728905
 C          2.584468   -4.207033   -3.743453
 C          2.047835   -4.623131   -2.519825
 C          2.372782   -3.976457   -1.326190
 H          4.457051   -1.609516   -2.573191
 H          3.887062   -2.754832   -4.662301
 H          1.365952   -5.470036   -2.493915
 H          1.946786   -4.341348   -0.397042
 C         -3.249773    2.884612    1.314657
 C         -3.780631    2.458430    2.540670
 C         -3.454540    3.108428    3.729003
 C         -2.584394    4.207150    3.743389
 C         -2.048286    4.623575    2.519642
 C         -2.373274    3.976841    1.326052
 H         -4.456164    1.608896    2.573457
 H         -3.886101    2.754314    4.662492
 H         -1.366793    5.470790    2.493603
 H         -1.947720    4.342000    0.396806
 C         -3.445043    2.965114   -1.258775
 C         -2.783934    2.523499   -2.408436
 C         -2.770510    3.299234   -3.571131
 C         -3.417999    4.536360   -3.628928
 C         -4.088365    4.972816   -2.475608
 C         -4.102945    4.205517   -1.315143
 H         -2.275799    1.564924   -2.411692
 H         -2.245795    2.927520   -4.448165
 H         -4.608271    5.928139   -2.486462
 H         -4.625089    4.581247   -0.439885
 C          3.389992   -5.384768    4.878181
 H          3.014342   -4.819795    5.736846
 H          2.741782   -6.261230    4.748844
 C          2.259888   -4.928591   -5.029863
 H          1.313795   -5.474251   -4.955152
 H          2.186561   -4.231952   -5.871989
 C         -2.259783    4.928763    5.029760
 H         -2.185909    4.232097    5.871816
 H         -1.313956    5.474854    4.954826
 C         -3.390032    5.385090   -4.877911
 H         -2.741418    6.261268   -4.748678
 H         -3.014859    4.820036   -5.736732
 H         -4.388992    5.760200   -5.128381
 H         -3.040314    5.658777    5.281962
 H          3.040160   -5.658975   -5.281797
 H          4.389039   -5.759437    5.128965
 H         -0.343116    2.498438   -0.001628
 H          0.343115   -2.498451    0.001620
 S        -13.682888   -0.677680    0.049900
 S         13.682888    0.677597   -0.050030
 S        -11.729534   -4.413110   -0.065319
 S         11.729560    4.413042    0.065153
 C        -14.207452   -3.558170   -0.027490
 C         14.207472    3.558086    0.027267
 H        -15.290626   -3.547854   -0.021180
 H         15.290646    3.547763    0.020922
 C        -13.456065   -4.702576   -0.063619
 C         13.456093    4.702498    0.063389
 H         13.816573    5.722444    0.089662
 H        -13.816538   -5.722524   -0.089930
       126
S1: Total Energy = -6397.56922778
 C          7.198148    0.824800    0.048030
 C          6.266552    1.880587    0.064021
 C          4.943928    1.449078    0.050648
 C          4.848994    0.051948    0.021022
 C          3.476544   -0.315047    0.005918
 C          2.684028    0.836522   -0.001583
 C          1.301294    0.546860    0.010048
 C          1.066322   -0.875114    0.016512
 C         -0.197327   -1.422717    0.019981
 S          6.376429   -0.750738    0.009466
 C          3.553974    2.104850    0.028994
 S          2.581900   -1.801155    0.017553
 H          6.587610    2.915902    0.083301
 C         -7.202242   -0.818363   -0.042798
 C         -6.278368   -1.871361   -0.054822
 C         -4.950852   -1.436995   -0.030720
 C         -4.858416   -0.041056    0.000223
 C         -3.487089    0.320926    0.017123
 C         -2.689829   -0.833691    0.025899
 C         -1.309627   -0.543749    0.014964
 C         -1.073477    0.879654    0.008611
 C          0.188454    1.426270    0.005443
 S         -6.395191    0.758729    0.003067
 C         -3.563962   -2.098154   -0.006549
 S         -2.591692    1.804680    0.007158
 H         -6.600739   -2.905724   -0.079226
 C          8.597393    1.101547    0.061420
 C          9.722757    0.317191    0.048569
 C          9.766534   -1.173991    0.012271
 O          8.816578   -1.947942   -0.007002
 C         11.191223   -1.541051    0.004443
 C         11.969553   -2.710939   -0.023221
 C         13.342988   -2.431341   -0.014099
 C         11.955943   -0.382888    0.034564
 C         11.118848    0.803331    0.064912
 C         11.600890    2.101793    0.102735
 C         13.003755    2.362952    0.111358
 N         14.148158    2.583535    0.118722
 C         10.787206    3.271731    0.137725
 N         10.155392    4.250785    0.167358
 H          8.768362    2.172621    0.086374
 C         -8.622176   -1.107817   -0.068459
 C         -9.728787   -0.326253   -0.063093
 C         -9.751333    1.183566   -0.020926
 O         -8.754498    1.926422    0.009126
 C        -11.134625    1.540833   -0.023141
 C        -11.924540    2.709685    0.005129
 C        -13.294804    2.451013   -0.015396
 C        -11.929543    0.356572   -0.066704
 C        -11.152089   -0.812005   -0.094406
 C        -11.619488   -2.150902   -0.143989
 C        -13.009352   -2.430065   -0.173937
 N        -14.154383   -2.668678   -0.199680
 C        -10.791772   -3.296871   -0.170856
 N        -10.128935   -4.262180   -0.194215
 H         -8.784567   -2.180240   -0.097460
 C          3.448526    2.965043   -1.247085
 C          2.787093    2.523198   -2.396666
 C          2.776826    3.297725   -3.560020
 C          3.427145    4.533543   -3.618229
 C          4.097687    4.969521   -2.464914
 C          4.109711    4.203533   -1.303484
 H          2.275974    1.566199   -2.400999
 H          2.251431    2.926719   -4.436806
 H          4.619025    5.923928   -2.476110
 H          4.630525    4.580101   -0.427759
 C          3.245427    2.887530    1.327993
 C          3.768304    2.459951    2.556469
 C          3.436252    3.110976    3.742848
 C          2.568358    4.211237    3.751722
 C          2.040163    4.628718    2.524480
 C          2.370702    3.981405    1.333066
 H          4.441299    1.608449    2.594263
 H          3.861013    2.756053    4.678990
 H          1.360289    5.476963    2.494290
 H          1.951266    4.347300    0.401373
 C         -3.256284   -2.876464   -1.307351
 C         -3.780065   -2.443317   -2.533841
 C         -3.452785   -3.092335   -3.722583
 C         -2.588545   -4.195339   -3.736071
 C         -2.058649   -4.617898   -2.511004
 C         -2.384965   -3.973193   -1.317170
 H         -4.451714   -1.590714   -2.567254
 H         -3.880016   -2.734582   -4.656462
 H         -1.382845   -5.469655   -2.484792
 H         -1.967044   -4.344096   -0.386667
 C         -3.464816   -2.961563    1.267031
 C         -2.808110   -2.523287    2.420538
 C         -2.805285   -3.299790    3.582694
 C         -3.460074   -4.533288    3.635983
 C         -4.125359   -4.966254    2.478301
 C         -4.129325   -4.198766    1.318116
 H         -2.296512   -1.566474    2.429169
 H         -2.284530   -2.931045    4.463253
 H         -4.651230   -5.918171    2.485783
 H         -4.649018   -4.571131    0.440102
 C          3.399104    5.382363   -4.866914
 H          3.051812    4.809482   -5.732151
 H          2.726300    6.241432   -4.747114
 C          2.237137    4.935303    5.034793
 H          1.257129    5.420107    4.979364
 H          2.232667    4.251822    5.890325
 C         -2.264537   -4.918272   -5.021600
 H         -2.247684   -4.231046   -5.874072
 H         -1.292206   -5.418498   -4.965953
 C         -3.449953   -5.380219    4.886279
 H         -2.854058   -6.291057    4.744944
 H         -3.026685   -4.834650    5.735180
 H         -4.462471   -5.699330    5.159311
 H         -3.015745   -5.688407   -5.241218
 H          2.976725    5.718236    5.248727
 H          4.392201    5.782839   -5.100039
 H         -0.351041   -2.495368    0.019931
 H          0.342018    2.498960    0.005275
 S        -13.655993    0.715360   -0.072256
 S         13.670632   -0.707825    0.029084
 S        -11.617297    4.422111    0.060908
 S         11.678238   -4.424536   -0.065855
 C        -14.103917    3.617264    0.013094
 C         14.164989   -3.590253   -0.041434
 H        -15.187572    3.624741    0.003341
 H         15.248041   -3.591066   -0.039825
 C        -13.336554    4.753795    0.055308
 C         13.400653   -4.726945   -0.070612
 H         13.752188   -5.750169   -0.095167
 H        -13.677763    5.779903    0.083869
