       144
S0: Total Energy = -5193.23811216
 C          7.244334    0.805467    0.006636
 C          6.330551    1.881644    0.044267
 C          5.000919    1.482713   -0.004679
 C          4.873967    0.095822   -0.080575
 C          3.485852   -0.235185   -0.104031
 C          2.707351    0.909705   -0.068211
 C          1.296138    0.607501   -0.036561
 C          1.083618   -0.815666   -0.042292
 C         -0.156004   -1.449238    0.000040
 S          6.374733   -0.748291   -0.096738
 C          3.619480    2.165961   -0.010904
 S          2.604277   -1.728020   -0.110917
 H          6.679450    2.906228    0.107789
 C         -7.244322   -0.805458   -0.006708
 C         -6.330539   -1.881641   -0.044268
 C         -5.000908   -1.482715    0.004727
 C         -4.873957   -0.095819    0.080567
 C         -3.485845    0.235194    0.104032
 C         -2.707343   -0.909696    0.068260
 C         -1.296129   -0.607495    0.036614
 C         -1.083609    0.815673    0.042328
 C          0.156013    1.449244   -0.000008
 S         -6.374719    0.748302    0.096593
 C         -3.619463   -2.165956    0.011026
 S         -2.604269    1.728029    0.110921
 H         -6.679450   -2.906223   -0.107759
 C          8.636475    1.051612    0.048928
 C          9.762073    0.246187    0.029066
 C          9.757540   -1.230985   -0.041091
 O          8.776604   -1.969969   -0.098328
 C         11.167882   -1.665595   -0.027536
 C         11.658005   -2.943548   -0.074026
 C         13.064337   -3.147718   -0.048790
 C         13.929446   -2.001131    0.025480
 C         13.380200   -0.687816    0.071831
 C         12.010449   -0.516313    0.045445
 C         11.154713    0.695246    0.078864
 C         11.636107    1.997073    0.142361
 C         13.025399    2.321648    0.185794
 N         14.145673    2.642105    0.223319
 C         10.816611    3.165145    0.169602
 N         10.192478    4.150030    0.193543
 H          8.822531    2.118050    0.110516
 H         10.978645   -3.789891   -0.129523
 H         14.067911    0.146009    0.127277
 C         -8.636462   -1.051604   -0.049014
 C         -9.762062   -0.246180   -0.029199
 C         -9.757536    1.230994    0.040923
 O         -8.776604    1.969985    0.098135
 C        -11.167880    1.665598    0.027326
 C        -11.658007    2.943552    0.073777
 C        -13.064336    3.147717    0.048519
 C        -13.929442    2.001124   -0.025733
 C        -13.380193    0.687812   -0.072039
 C        -12.010440    0.516313   -0.045631
 C        -11.154700   -0.695244   -0.079005
 C        -11.636095   -1.997072   -0.142490
 C        -13.025387   -2.321641   -0.185953
 N        -14.145663   -2.642091   -0.223503
 C        -10.816603   -3.165147   -0.169698
 N        -10.192479   -4.150039   -0.193611
 H         -8.822516   -2.118045   -0.110564
 H        -10.978648    3.789897    0.129260
 H        -14.067899   -0.146019   -0.127463
 C          3.561482    3.032780   -1.287417
 C          2.833922    2.643611   -2.417937
 C          2.874913    3.393277   -3.596275
 C          3.645547    4.555120   -3.694681
 C          4.386065    4.937319   -2.566303
 C          4.349333    4.192683   -1.390938
 H          2.228310    1.743858   -2.391640
 H          2.295637    3.059624   -4.454083
 H          5.007556    5.828889   -2.608945
 H          4.942593    4.523531   -0.543970
 C          3.403119    2.925608    1.325106
 C          3.632792    2.240406    2.530391
 C          3.445177    2.859765    3.761028
 C          3.021578    4.195256    3.846133
 C          2.788286    4.873411    2.647569
 C          2.974188    4.252806    1.407810
 H          3.961575    1.205142    2.507430
 H          3.631767    2.296567    4.672803
 H          2.453679    5.907971    2.673287
 H          2.773444    4.821567    0.507408
 C         -3.403105   -2.925726   -1.324913
 C         -3.632598   -2.240563   -2.530254
 C         -3.445000   -2.860025   -3.760841
 C         -3.021600   -4.195587   -3.845836
 C         -2.788477   -4.873700   -2.647217
 C         -2.974362   -4.252991   -1.407506
 H         -3.961219   -1.205245   -2.507372
 H         -3.631444   -2.296855   -4.672664
 H         -2.454017   -5.908310   -2.672850
 H         -2.773747   -4.821721   -0.507056
 C         -3.561478   -3.032662    1.287625
 C         -2.833809   -2.643495    2.418071
 C         -2.874816   -3.393072    3.596467
 C         -3.645579   -4.554814    3.695010
 C         -4.386219   -4.937006    2.566708
 C         -4.349471   -4.192461    1.391288
 H         -2.228095   -1.743814    2.391683
 H         -2.295446   -3.059422    4.454213
 H         -5.007822   -5.828493    2.609457
 H         -4.942827   -4.523295    0.544383
 C          3.671513    5.380715   -4.958962
 H          3.310469    4.807277   -5.818486
 H          3.034307    6.269993   -4.865290
 C          2.842180    4.870492    5.185051
 H          2.312271    5.822815    5.084753
 H          2.276280    4.238609    5.879347
 C         -2.842236   -4.870940   -5.184699
 H         -2.276351   -4.239121   -5.879065
 H         -2.312332   -5.823259   -5.084330
 C         -3.671563   -5.380313    4.959354
 H         -3.034450   -6.269662    4.865713
 H         -3.310416   -4.806848    5.818816
 H         -4.683905   -5.732842    5.186070
 H         -3.810895   -5.079271   -5.657323
 H          3.810826    5.078784    5.657718
 H          4.683832    5.733361   -5.185600
 C          0.221557    2.954878    0.011935
 H         -0.631432    3.385084   -0.524989
 H          0.201797    3.347101    1.035582
 H          1.123126    3.326760   -0.470542
 C         -0.221537   -2.954872   -0.011944
 H         -1.123114   -3.326780    0.470493
 H         -0.201742   -3.347066   -1.035602
 H          0.631442   -3.385085    0.524993
 C        -13.639600    4.443465    0.093980
 C        -15.334599    2.206542   -0.051454
 C         13.639594   -4.443465   -0.094304
 C         15.334601   -2.206553    0.051174
 H        -15.988848    1.340644   -0.107654
 H        -12.981114    5.306212    0.150335
 H         12.981106   -5.306210   -0.150676
 H         15.988856   -1.340661    0.107380
 C        -15.861866    3.479100   -0.005956
 C        -15.008252    4.606403    0.067396
 C         15.008247   -4.606408   -0.067749
 C         15.861863   -3.479113    0.005633
 H        -16.938394    3.621755   -0.026270
 H        -15.437846    5.603388    0.102752
 H         15.437833   -5.603395   -0.103155
 H         16.938393   -3.621764    0.025909
       144
T1: Total Energy = -5193.19702383
 C          7.231774    0.789194    0.002603
 C          6.304639    1.868298    0.037346
 C          4.986395    1.465537   -0.014140
 C          4.855254    0.064391   -0.083398
 C          3.493830   -0.263242   -0.095868
 C          2.687725    0.902972   -0.058343
 C          1.306899    0.600874   -0.028607
 C          1.081135   -0.830075   -0.042448
 C         -0.149398   -1.453983   -0.009764
 S          6.375016   -0.774825   -0.095120
 C          3.608164    2.155971   -0.019403
 S          2.607410   -1.746052   -0.111865
 H          6.651258    2.893304    0.099503
 C         -7.231793   -0.789189   -0.002725
 C         -6.304649   -1.868283   -0.037499
 C         -4.986407   -1.465511    0.013959
 C         -4.855277   -0.064363    0.083205
 C         -3.493856    0.263282    0.095690
 C         -2.687744   -0.902926    0.058153
 C         -1.306922   -0.600822    0.028422
 C         -1.081161    0.830128    0.042272
 C          0.149372    1.454036    0.009595
 S         -6.375046    0.774842    0.094897
 C         -3.608168   -2.155931    0.019204
 S         -2.607443    1.746096    0.111674
 H         -6.651260   -2.893294   -0.099628
 C          8.617237    1.043740    0.043342
 C          9.752574    0.237115    0.027132
 C          9.755810   -1.241757   -0.037273
 O          8.778061   -1.985976   -0.090532
 C         11.167532   -1.670312   -0.023853
 C         11.663913   -2.945362   -0.066523
 C         13.072434   -3.142236   -0.042542
 C         13.930147   -1.990361    0.026171
 C         13.372510   -0.678598    0.068728
 C         12.002737   -0.515002    0.044029
 C         11.136230    0.689325    0.074605
 C         11.611307    2.000213    0.135733
 C         12.997431    2.331597    0.179018
 N         14.116459    2.658880    0.216521
 C         10.789249    3.164685    0.160753
 N         10.166063    4.151071    0.183065
 H          8.800988    2.110168    0.099840
 H         10.989081   -3.795663   -0.118121
 H         14.055703    0.159217    0.119959
 C         -8.617255   -1.043748   -0.043385
 C         -9.752597   -0.237131   -0.027126
 C         -9.755840    1.241742    0.037221
 O         -8.778096    1.985964    0.090546
 C        -11.167570    1.670279    0.024034
 C        -11.663961    2.945320    0.066831
 C        -13.072487    3.142178    0.043037
 C        -13.930195    1.990296   -0.025612
 C        -13.372548    0.678541   -0.068293
 C        -12.002769    0.514960   -0.043787
 C        -11.136250   -0.689356   -0.074496
 C        -11.611307   -2.000252   -0.135606
 C        -12.997427   -2.331670   -0.178742
 N        -14.116446   -2.658998   -0.216107
 C        -10.789222   -3.164702   -0.160733
 N        -10.165994   -4.151059   -0.183170
 H         -8.801002   -2.110180   -0.099845
 H        -10.989133    3.795628    0.118366
 H        -14.055739   -0.159279   -0.119455
 C          3.549700    3.009645   -1.305199
 C          2.832831    2.603216   -2.436597
 C          2.876061    3.340651   -3.622438
 C          3.640282    4.506137   -3.728416
 C          4.372661    4.903690   -2.600084
 C          4.333170    4.171775   -1.416929
 H          2.235239    1.698190   -2.406260
 H          2.305126    2.993579   -4.480434
 H          4.990385    5.797447   -2.648751
 H          4.922003    4.513729   -0.571564
 C          3.412578    2.928375    1.311032
 C          3.661164    2.253892    2.518693
 C          3.495472    2.885764    3.746526
 C          3.078139    4.223122    3.825530
 C          2.825500    4.890727    2.624050
 C          2.987826    4.257982    1.387872
 H          3.988564    1.218094    2.501510
 H          3.696088    2.331018    4.660353
 H          2.494321    5.926412    2.645738
 H          2.771251    4.817125    0.485188
 C         -3.412572   -2.928317   -1.311240
 C         -3.661249   -2.253853   -2.518893
 C         -3.495554   -2.885716   -3.746730
 C         -3.078123   -4.223043   -3.825747
 C         -2.825395   -4.890628   -2.624274
 C         -2.987726   -4.257893   -1.388092
 H         -3.988728   -1.218080   -2.501700
 H         -3.696244   -2.330986   -4.660551
 H         -2.494139   -5.926288   -2.645973
 H         -2.771080   -4.817019   -0.485414
 C         -3.549665   -3.009622    1.304984
 C         -2.832828   -2.603167    2.436391
 C         -2.876012   -3.340628    3.622218
 C         -3.640147   -4.506173    3.728166
 C         -4.372483   -4.903762    2.599819
 C         -4.333040   -4.171820    1.416679
 H         -2.235299   -1.698098    2.406073
 H         -2.305107   -2.993531    4.480224
 H         -4.990134   -5.797571    2.648461
 H         -4.921832   -4.513807    0.571299
 C          3.669358    5.318292   -5.001099
 H          3.319886    4.732833   -5.857248
 H          3.023945    6.202985   -4.921492
 C          2.928354    4.914374    5.159663
 H          2.349971    5.839016    5.068524
 H          2.427139    4.269702    5.890483
 C         -2.928335   -4.914286   -5.159884
 H         -2.427210   -4.269571   -5.890728
 H         -2.349864   -5.838875   -5.068766
 C         -3.669171   -5.318356    5.000833
 H         -3.023675   -6.202988    4.921219
 H         -3.319767   -4.732883    5.857000
 H         -4.680213   -5.677236    5.222946
 H         -3.907248   -5.177583   -5.581359
 H          3.907273    5.177580    5.581182
 H          4.680429    5.677075   -5.223238
 C          0.246735    2.955689    0.037163
 H         -0.674440    3.420535   -0.327202
 H          0.426955    3.321556    1.053969
 H          1.060325    3.316440   -0.592718
 C         -0.246763   -2.955637   -0.037294
 H         -1.060415   -3.316370    0.592518
 H         -0.426881   -3.321535   -1.054108
 H          0.674377   -3.420473    0.327178
 C        -13.654647    4.434360    0.084708
 C        -15.335735    2.187938   -0.049621
 C         13.654584   -4.434425   -0.084091
 C         15.335682   -2.188019    0.050378
 H        -15.985378    1.318231   -0.101541
 H        -13.000748    5.300974    0.136795
 H         13.000681   -5.301034   -0.136230
 H         15.985328   -1.318318    0.102353
 C        -15.870994    3.458156   -0.007889
 C        -15.024752    4.590390    0.059848
 C         15.024684   -4.590472   -0.059043
 C         15.870931   -3.458246    0.008765
 H        -16.948545    3.593718   -0.026920
 H        -15.459690    5.585188    0.092283
 H         15.459614   -5.585275   -0.091385
 H         16.948477   -3.593820    0.027946
       144
S1: Total Energy = -5193.17926666
 C          7.236368    0.793963    0.000972
 C          6.317181    1.869698    0.033870
 C          4.991090    1.464895   -0.011888
 C          4.862887    0.071403   -0.075893
 C          3.489744   -0.256697   -0.086995
 C          2.692787    0.903395   -0.054623
 C          1.304852    0.601029   -0.026500
 C          1.081606   -0.827594   -0.036266
 C         -0.151411   -1.452901   -0.006348
 S          6.377985   -0.768241   -0.088786
 C          3.613867    2.155551   -0.016379
 S          2.608219   -1.740136   -0.097521
 H          6.662643    2.895399    0.090578
 C         -7.236375   -0.793945   -0.001176
 C         -6.317181   -1.869672   -0.034169
 C         -4.991088   -1.464858    0.011433
 C         -4.862892   -0.071361    0.075373
 C         -3.489751    0.256753    0.086371
 C         -2.692790   -0.903334    0.053984
 C         -1.304859   -0.600964    0.025800
 C         -1.081615    0.827658    0.035541
 C          0.151401    1.452965    0.005616
 S         -6.377994    0.768276    0.088302
 C         -3.613854   -2.155498    0.015837
 S         -2.608231    1.740197    0.096811
 H         -6.662647   -2.895378   -0.090762
 C          8.629792    1.046438    0.038745
 C          9.758855    0.240324    0.024798
 C          9.758833   -1.239675   -0.037093
 O          8.778682   -1.981025   -0.088792
 C         11.168766   -1.670500   -0.024035
 C         11.661807   -2.946913   -0.065173
 C         13.070084   -3.147995   -0.041697
 C         13.931266   -1.997652    0.025042
 C         13.377788   -0.684644    0.066021
 C         12.007127   -0.515920    0.041705
 C         11.148111    0.688910    0.071267
 C         11.624653    2.000192    0.131391
 C         13.010822    2.330015    0.172374
 N         14.130754    2.655671    0.207936
 C         10.803759    3.164740    0.157825
 N         10.180032    4.151257    0.181395
 H          8.813766    2.113191    0.090635
 H         10.984537   -3.795372   -0.115092
 H         14.063040    0.151591    0.115640
 C         -8.629804   -1.046443   -0.038635
 C         -9.758878   -0.240348   -0.024470
 C         -9.758867    1.239654    0.037363
 O         -8.778717    1.981022    0.088824
 C        -11.168810    1.670457    0.024582
 C        -11.661862    2.946864    0.065743
 C        -13.070148    3.147921    0.042560
 C        -13.931326    1.997559   -0.023916
 C        -13.377835    0.684558   -0.064926
 C        -12.007166    0.515860   -0.040897
 C        -11.148140   -0.688960   -0.070558
 C        -11.624689   -2.000249   -0.130471
 C        -13.010866   -2.330075   -0.171118
 N        -14.130810   -2.655721   -0.206392
 C        -10.803800   -3.164797   -0.157048
 N        -10.180089   -4.151322   -0.180738
 H         -8.813771   -2.113202   -0.090421
 H        -10.984595    3.795338    0.115460
 H        -14.063083   -0.151692   -0.114340
 C          3.555832    3.009934   -1.301255
 C          2.842910    2.601998   -2.434763
 C          2.887961    3.339657   -3.620297
 C          3.649964    4.506957   -3.723891
 C          4.378006    4.906160   -2.593373
 C          4.336716    4.174118   -1.410322
 H          2.247344    1.695529   -2.406305
 H          2.320245    2.991551   -4.480002
 H          4.993782    5.801336   -2.640160
 H          4.921918    4.517472   -0.562995
 C          3.418417    2.926604    1.314830
 C          3.674668    2.253807    2.522029
 C          3.509122    2.885161    3.750061
 C          3.084457    4.220203    3.829903
 C          2.824236    4.886101    2.628921
 C          2.986200    4.253922    1.392505
 H          4.008407    1.220123    2.503813
 H          3.715949    2.332042    4.663462
 H          2.487648    5.920007    2.651391
 H          2.764486    4.811674    0.490199
 C         -3.418496   -2.926594   -1.315361
 C         -3.674857   -2.253839   -2.522559
 C         -3.509412   -2.885233   -3.750584
 C         -3.084745   -4.220276   -3.830417
 C         -2.824410   -4.886129   -2.629435
 C         -2.986271   -4.253909   -1.393026
 H         -4.008600   -1.220155   -2.504348
 H         -3.716321   -2.332147   -4.663987
 H         -2.487812   -5.920032   -2.651898
 H         -2.764465   -4.811624   -0.490720
 C         -3.555679   -3.009840    1.300735
 C         -2.842627   -2.601883    2.434153
 C         -2.887530   -3.339526    3.619702
 C         -3.649504   -4.506838    3.723401
 C         -4.377671   -4.906066    2.592973
 C         -4.336528   -4.174038    1.409908
 H         -2.247077   -1.695406    2.405618
 H         -2.319721   -2.991399    4.479336
 H         -4.993429   -5.801250    2.639843
 H         -4.921818   -4.517417    0.562652
 C          3.680840    5.319272   -4.996386
 H          3.337315    4.732433   -5.853988
 H          3.031392    6.201239   -4.919344
 C          2.935487    4.911259    5.164121
 H          2.347332    5.829955    5.075535
 H          2.445314    4.262233    5.898526
 C         -2.935894   -4.911381   -5.164623
 H         -2.445887   -4.262344   -5.899127
 H         -2.347639   -5.830018   -5.076075
 C         -3.680194   -5.319144    4.995906
 H         -3.030428   -6.200883    4.918925
 H         -3.336932   -4.732174    5.853525
 H         -4.690540   -5.682511    5.213738
 H         -3.914688   -5.185024   -5.579755
 H          3.914249    5.184787    5.579404
 H          4.691298    5.682289   -5.214289
 C          0.248737    2.954184    0.031021
 H         -0.674304    3.419642   -0.327312
 H          0.435893    3.319688    1.046739
 H          1.059361    3.313782   -0.603570
 C         -0.248761   -2.954119   -0.031797
 H         -1.059358   -3.313731    0.602820
 H         -0.435968   -3.319588   -1.047518
 H          0.674292   -3.419598    0.326478
 C        -13.648412    4.441313    0.082665
 C        -15.336322    2.199896   -0.047449
 C         13.648335   -4.441393   -0.081764
 C         15.336254   -2.200014    0.048871
 H        -15.988679    1.332126   -0.097755
 H        -12.991946    5.306128    0.133081
 H         12.991866   -5.306194   -0.132383
 H         15.988614   -1.332257    0.099380
 C        -15.867904    3.471975   -0.007272
 C        -15.018542    4.601757    0.058337
 C         15.018457   -4.601862   -0.057149
 C         15.867824   -3.472098    0.008727
 H        -16.945113    3.610509   -0.025973
 H        -15.450350    5.597962    0.089571
 H         15.450256   -5.598072   -0.088354
 H         16.945026   -3.610651    0.027654
