       152
S0: Total Energy = -7335.27121148
 C          6.788795    2.626115   -0.237488
 C          6.526250    1.247778   -0.053846
 C          5.146978    0.961482   -0.008918
 C          4.393273    2.114218   -0.169872
 C          3.007667    1.769525   -0.172902
 C          2.842863    0.404499   -0.018858
 C          1.446895    0.032683   -0.004291
 C          0.613465    1.201185   -0.116058
 C         -0.785234    1.218716   -0.106805
 S          5.314108    3.580578   -0.356512
 C          4.230736   -0.271153    0.154824
 S          1.548800    2.692768   -0.296425
 C         -6.788809   -2.626113    0.237398
 C         -6.526255   -1.247783    0.053722
 C         -5.146982   -0.961504    0.008774
 C         -4.393283   -2.114246    0.169706
 C         -3.007673   -1.769565    0.172689
 C         -2.842864   -0.404544    0.018617
 C         -1.446896   -0.032736    0.004036
 C         -0.613469   -1.201240    0.115802
 C          0.785230   -1.218773    0.106551
 S         -5.314128   -3.580595    0.356378
 C         -4.230739    0.271120   -0.155008
 S         -1.548811   -2.692819    0.296178
 C         10.377292    1.962508   -0.229363
 C         11.447243    1.090620   -0.138042
 C         11.356505   -0.370558    0.068705
 O         10.343850   -1.054276    0.179224
 C         12.744555   -0.880813    0.123423
 C         13.156719   -2.194216    0.308032
 C         14.522770   -2.432418    0.327034
 C         15.432979   -1.379238    0.165001
 C         15.018899   -0.066223   -0.020282
 C         13.642226    0.188006   -0.041569
 C         12.864998    1.443430   -0.215588
 C         13.435385    2.690977   -0.417470
 C         14.845003    2.912371   -0.473533
 N         15.985825    3.144679   -0.526753
 C         12.697608    3.900260   -0.597497
 N         12.143964    4.914713   -0.750278
 H         10.634310    3.006320   -0.370598
 H         12.445819   -3.003896    0.432886
 H         15.777123    0.695461   -0.138334
 C        -10.377294   -1.962449    0.229552
 C        -11.447253   -1.090558    0.138321
 C        -11.356534    0.370620   -0.068444
 O        -10.343888    1.054341   -0.179027
 C        -12.744590    0.880860   -0.123163
 C        -13.156772    2.194248   -0.307835
 C        -14.522827    2.432431   -0.326832
 C        -15.433021    1.379248   -0.164732
 C        -15.018922    0.066248    0.020617
 C        -13.642245   -0.187959    0.041899
 C        -12.865007   -1.443366    0.215969
 C        -13.435408   -2.690884    0.417980
 C        -14.845033   -2.912225    0.474116
 N        -15.985869   -3.144447    0.527395
 C        -12.697665   -3.900176    0.598083
 N        -12.144075   -4.914650    0.750920
 H        -10.634305   -3.006258    0.370818
 H        -12.445885    3.003931   -0.432739
 H        -15.777132   -0.695443    0.138716
 C          4.455468   -0.783222    1.598509
 C          3.558085   -0.485345    2.632558
 C          3.822437   -0.857277    3.952096
 C          4.993539   -1.539598    4.297823
 C          5.900628   -1.821425    3.268083
 C          5.642309   -1.447390    1.950901
 H          2.638993    0.048512    2.419179
 H          3.100237   -0.605284    4.725416
 H          6.831589   -2.334922    3.497194
 H          6.382274   -1.683832    1.194522
 C          4.537254   -1.269229   -0.989893
 C          4.529120   -0.784047   -2.309850
 C          4.843611   -1.607386   -3.384477
 C          5.192445   -2.953490   -3.189978
 C          5.185343   -3.435753   -1.880165
 C          4.854807   -2.614243   -0.796814
 H          4.276044    0.255685   -2.499256
 H          4.827196   -1.196558   -4.391683
 H          5.440113   -4.476087   -1.691036
 H          4.833841   -3.046445    0.195157
 C         -4.537176    1.269205    0.989726
 C         -4.528715    0.784100    2.309708
 C         -4.843051    1.607475    3.384354
 C         -5.192049    2.953535    3.189853
 C         -5.185254    3.435727    1.880010
 C         -4.854870    2.614185    0.796639
 H         -4.275488   -0.255592    2.499127
 H         -4.826377    1.196707    4.391581
 H         -5.440142    4.476031    1.690876
 H         -4.834120    3.046339   -0.195358
 C         -4.455553    0.783198   -1.598671
 C         -3.558170    0.485400   -2.632749
 C         -3.822581    0.857324   -3.952274
 C         -4.993746    1.539562   -4.297966
 C         -5.900833    1.821297   -3.268203
 C         -5.642455    1.447267   -1.951028
 H         -2.639035   -0.048391   -2.419396
 H         -3.100380    0.605394   -4.725614
 H         -6.831842    2.334720   -3.497283
 H         -6.382436    1.683624   -1.194638
 C          5.265610   -1.969511    5.719769
 H          4.700030   -1.364559    6.435774
 H          4.979904   -3.017799    5.879310
 C          5.564078   -3.835261   -4.358626
 H          5.717958   -4.872181   -4.043912
 H          4.783664   -3.828409   -5.129171
 C         -5.563553    3.835332    4.358522
 H         -4.783177    3.828288    5.129101
 H         -5.717215    4.872296    4.043845
 C         -5.265871    1.969478   -5.719900
 H         -4.979942    3.017694   -5.879514
 H         -4.700500    1.364372   -6.435942
 H         -6.329775    1.884894   -5.966713
 H         -6.489270    3.492328    4.837836
 H          6.489701   -3.492089   -4.837999
 H          6.329470   -1.884698    5.966697
 C          1.448759   -2.543851    0.164327
 C          1.918397   -3.236119    1.251455
 S          1.490410   -3.568505   -1.265198
 C          2.325307   -4.569458    0.944628
 H          1.962539   -2.807395    2.245642
 C          2.156557   -4.910547   -0.372222
 H          2.726487   -5.258025    1.681627
 C         -1.448773    2.543791   -0.164543
 C         -1.918440    3.236095   -1.251635
 S         -1.490466    3.568370    1.265037
 C         -2.325322    4.569431   -0.944755
 H         -1.962595    2.807411   -2.245838
 C         -2.156542    4.910476    0.372103
 H         -2.726492    5.258032   -1.681728
 C          2.482224   -6.210089   -1.047007
 H          2.870278   -6.920985   -0.310982
 H          1.599833   -6.659385   -1.517871
 H          3.241658   -6.082682   -1.827664
 C         -2.482159    6.210009    1.046928
 H         -1.599761    6.659233    1.517849
 H         -2.870141    6.920959    0.310917
 H         -3.241633    6.082614    1.827549
 C         -8.141181   -2.939744    0.303198
 C          8.141166    2.939769   -0.303197
 H         -8.545028   -3.936826    0.439262
 H          8.545004    3.936867   -0.439173
 C         -8.971026   -1.810255    0.178297
 C          8.971022    1.810295   -0.178238
 S          8.001289    0.328373    0.029925
 S         -8.001285   -0.328367   -0.030081
 F         15.003744   -3.669916    0.500681
 F         16.741212   -1.667155    0.192528
 F        -16.741258    1.667145   -0.192262
 F        -15.003820    3.669913   -0.500538
       152
T1: Total Energy = -7335.23029469
 C          6.755467   -2.650525    0.215480
 C          6.486204   -1.265240    0.031963
 C          5.121963   -0.983086   -0.017767
 C          4.350980   -2.150422    0.142533
 C          2.992747   -1.810144    0.149250
 C          2.820323   -0.415287   -0.008161
 C          1.452062   -0.045728   -0.004354
 C          0.600509   -1.211690    0.121125
 C         -0.786356   -1.223398    0.116837
 S          5.283691   -3.616900    0.327324
 C          4.211786    0.253132   -0.186672
 S          1.528919   -2.715034    0.294445
 C         -6.755414    2.650369   -0.215958
 C         -6.486175    1.265088   -0.032402
 C         -5.121931    0.982895    0.017183
 C         -4.350940    2.150200   -0.143245
 C         -2.992704    1.809904   -0.149989
 C         -2.820293    0.415064    0.007523
 C         -1.452028    0.045487    0.003740
 C         -0.600474    1.211444   -0.121769
 C          0.786394    1.223153   -0.117456
 S         -5.283625    3.616690   -0.328039
 C         -4.211763   -0.253337    0.186039
 S         -1.528869    2.714783   -0.295183
 C         10.340259   -1.975039    0.219171
 C         11.412096   -1.092805    0.134600
 C         11.314166    0.369505   -0.066383
 O         10.297020    1.047064   -0.181169
 C         12.698533    0.890751   -0.108389
 C         13.104960    2.206447   -0.282267
 C         14.470953    2.452710   -0.288484
 C         15.383122    1.403756   -0.124492
 C         14.973696    0.086097    0.050103
 C         13.599300   -0.175643    0.058295
 C         12.824068   -1.435280    0.218119
 C         13.402342   -2.687126    0.414129
 C         14.811242   -2.899869    0.477200
 N         15.954074   -3.124974    0.535721
 C         12.673275   -3.901895    0.578589
 N         12.128574   -4.923871    0.719158
 H         10.602736   -3.017257    0.358504
 H         12.391052    3.013307   -0.408652
 H         15.734841   -0.672314    0.170621
 C        -10.340242    1.975075   -0.218797
 C        -11.412151    1.092969   -0.133825
 C        -11.314361   -0.369351    0.067164
 O        -10.297280   -1.047059    0.181627
 C        -12.698786   -0.890408    0.109584
 C        -13.105336   -2.206050    0.283585
 C        -14.471359   -2.452136    0.290179
 C        -15.383437   -1.403067    0.126416
 C        -14.973887   -0.085462   -0.048304
 C        -13.599459    0.176102   -0.056859
 C        -12.824105    1.435636   -0.216896
 C        -13.402248    2.687577   -0.412642
 C        -14.811133    2.900546   -0.475306
 N        -15.953942    3.125848   -0.533505
 C        -12.673035    3.902246   -0.577198
 N        -12.128180    4.924131   -0.717824
 H        -10.602664    3.017304   -0.358170
 H        -12.391498   -3.013001    0.409785
 H        -15.734968    0.673042   -0.168637
 C          4.437171    0.760655   -1.632008
 C          3.541877    0.455066   -2.665571
 C          3.805083    0.824177   -3.985948
 C          4.974732    1.508351   -4.333220
 C          5.881350    1.794534   -3.304201
 C          5.623598    1.424788   -1.985831
 H          2.624923   -0.082565   -2.451847
 H          3.084277    0.567144   -4.758774
 H          6.811765    2.308119   -3.534772
 H          6.364292    1.663055   -1.231087
 C          4.523574    1.246977    0.959268
 C          4.508242    0.757993    2.278072
 C          4.831272    1.575051    3.355191
 C          5.197123    2.916719    3.164020
 C          5.196586    3.402897    1.854923
 C          4.857150    2.588970    0.769475
 H          4.244166   -0.279200    2.466369
 H          4.809086    1.161964    4.361218
 H          5.464539    4.440378    1.668979
 H          4.842501    3.023797   -0.221325
 C         -4.523537   -1.247118   -0.959975
 C         -4.508248   -0.758034   -2.278745
 C         -4.831213   -1.575035   -3.355924
 C         -5.196946   -2.916752   -3.164857
 C         -5.196360   -3.403027   -1.855799
 C         -4.856986   -2.589155   -0.770288
 H         -4.244256    0.279193   -2.466969
 H         -4.809067   -1.161867   -4.361919
 H         -5.464222   -4.440545   -1.669931
 H         -4.842279   -3.024069    0.220473
 C         -4.437175   -0.760921    1.631340
 C         -3.541960   -0.455248    2.664953
 C         -3.805197   -0.824386    3.985313
 C         -4.974803   -1.508672    4.332524
 C         -5.881349   -1.794920    3.303464
 C         -5.623566   -1.425146    1.985104
 H         -2.625047    0.082472    2.451274
 H         -3.084455   -0.567284    4.758176
 H         -6.811735   -2.308575    3.533991
 H         -6.364212   -1.663452    1.230325
 C          5.246891    1.933786   -5.756296
 H          4.677176    1.330381   -6.470218
 H          4.966412    2.983263   -5.916949
 C          5.582530    3.790048    4.334208
 H          5.718447    4.831954    4.028086
 H          4.818911    3.764795    5.120753
 C         -5.582251   -3.790030   -4.335116
 H         -4.818458   -3.764910   -5.121498
 H         -5.718396   -4.831911   -4.029013
 C         -5.246961   -1.934164    5.755584
 H         -4.965526   -2.983351    5.916462
 H         -4.678002   -1.330130    6.469581
 H         -6.310179   -1.844463    6.003259
 H         -6.521752   -3.451891   -4.790512
 H          6.522187    3.452058    4.789396
 H          6.309959    1.843122   -6.004278
 C          1.460870    2.541507   -0.177733
 C          1.936959    3.226287   -1.267125
 S          1.509615    3.569708    1.249243
 C          2.352803    4.557326   -0.963915
 H          1.978211    2.794651   -2.260181
 C          2.186039    4.903490    0.352082
 H          2.758635    5.240972   -1.702797
 C         -1.460810   -2.541765    0.177059
 C         -1.936862   -3.226602    1.266432
 S         -1.509541   -3.569917   -1.249953
 C         -2.352655   -4.557647    0.963182
 H         -1.978104   -2.795007    2.259507
 C         -2.185881   -4.903764   -0.352826
 H         -2.758441   -5.241337    1.702048
 C          2.520747    6.202661    1.023068
 H          2.914148    6.908338    0.285001
 H          1.641277    6.659349    1.492079
 H          3.278885    6.071909    1.804331
 C         -2.520516   -6.202938   -1.023844
 H         -1.641024   -6.659553   -1.492886
 H         -2.913853   -6.908663   -0.285789
 H         -3.278677   -6.072218   -1.805089
 C         -8.100639    2.962701   -0.284342
 C          8.100689   -2.962809    0.284092
 H         -8.506677    3.958506   -0.420360
 H          8.506743   -3.958604    0.420138
 C         -8.937516    1.826278   -0.163026
 C          8.937542   -1.826334    0.163054
 S          7.970967   -0.343379   -0.045711
 S         -7.970957    0.343291    0.045605
 F         14.946055    3.695528   -0.451418
 F         16.691405    1.696376   -0.138694
 F        -16.691753   -1.695519    0.140964
 F        -14.946578   -3.694888    0.453265
       152
S1: Total Energy = -7335.21481730
 C          6.763591   -2.641970    0.219563
 C          6.498260   -1.261875    0.041074
 C          5.125367   -0.978855   -0.005924
 C          4.361780   -2.141405    0.148779
 C          2.994605   -1.799212    0.150765
 C          2.823947   -0.411093   -0.005704
 C          1.451313   -0.042270   -0.007580
 C          0.603127   -1.209384    0.115780
 C         -0.785009   -1.224079    0.116789
 S          5.293002   -3.606704    0.330450
 C          4.216414    0.257663   -0.170508
 S          1.536472   -2.709065    0.289150
 C         -6.763608    2.642005   -0.219334
 C         -6.498268    1.261913   -0.040839
 C         -5.125374    0.978913    0.006255
 C         -4.361794    2.141475   -0.148389
 C         -2.994615    1.799296   -0.150337
 C         -2.823951    0.411176    0.006116
 C         -1.451317    0.042362    0.008021
 C         -0.603133    1.209478   -0.115329
 C          0.785003    1.224174   -0.116337
 S         -5.293025    3.606764   -0.330093
 C         -4.216414   -0.257596    0.170869
 S         -1.536484    2.709158   -0.288683
 C         10.356439   -1.972764    0.218362
 C         11.424228   -1.093640    0.133196
 C         11.325114    0.371153   -0.062800
 O         10.306745    1.047482   -0.172112
 C         12.708377    0.892082   -0.106848
 C         13.113780    2.208353   -0.277063
 C         14.479856    2.455706   -0.286177
 C         15.392815    1.406074   -0.128349
 C         14.985410    0.087632    0.042566
 C         13.610210   -0.176491    0.053820
 C         12.840501   -1.434894    0.210923
 C         13.418681   -2.689780    0.400025
 C         14.826950   -2.903590    0.458270
 N         15.970491   -3.128520    0.512471
 C         12.689369   -3.903976    0.560378
 N         12.142959   -4.926147    0.697123
 H         10.617625   -3.015807    0.355024
 H         12.398987    3.015205   -0.398578
 H         15.747264   -0.670806    0.158366
 C        -10.356443    1.972724   -0.218548
 C        -11.424221    1.093570   -0.133562
 C        -11.325098   -0.371228    0.062389
 O        -10.306728   -1.047527    0.171875
 C        -12.708353   -0.892204    0.106141
 C        -13.113746   -2.208498    0.276205
 C        -14.479816   -2.455898    0.285024
 C        -15.392778   -1.406289    0.127065
 C        -14.985382   -0.087823   -0.043694
 C        -13.610189    0.176347   -0.054652
 C        -12.840491    1.434784   -0.211531
 C        -13.418675    2.689667   -0.400648
 C        -14.826939    2.903431   -0.459179
 N        -15.970477    3.128324   -0.513609
 C        -12.689373    3.903904   -0.560734
 N        -12.142970    4.926106   -0.697265
 H        -10.617635    3.015764   -0.355221
 H        -12.398951   -3.015333    0.397821
 H        -15.747238    0.670595   -0.159611
 C          4.454849    0.775978   -1.609286
 C          3.578375    0.461392   -2.656424
 C          3.855209    0.838467   -3.971578
 C          5.020251    1.540097   -4.299818
 C          5.908171    1.835051   -3.257168
 C          5.637055    1.457195   -1.943655
 H          2.665978   -0.089581   -2.457131
 H          3.149171    0.574213   -4.755515
 H          6.834670    2.361958   -3.472880
 H          6.363763    1.702277   -1.177509
 C          4.516669    1.241052    0.987366
 C          4.505405    0.736797    2.300771
 C          4.815805    1.545682    3.387561
 C          5.163662    2.894352    3.212288
 C          5.159337    3.395300    1.908637
 C          4.832649    2.589506    0.813400
 H          4.255349   -0.305947    2.476592
 H          4.798006    1.120769    4.388702
 H          5.414336    4.438131    1.735075
 H          4.814420    3.035248   -0.172472
 C         -4.516622   -1.240993   -0.987010
 C         -4.505297   -0.736750   -2.300418
 C         -4.815657   -1.545644   -3.387213
 C         -5.163536   -2.894308   -3.211942
 C         -5.159266   -3.395246   -1.908286
 C         -4.832620   -2.589444   -0.813044
 H         -4.255219    0.305989   -2.476237
 H         -4.797807   -1.120743   -4.388358
 H         -5.414277   -4.438074   -1.734727
 H         -4.814434   -3.035176    0.172834
 C         -4.454879   -0.775919    1.609640
 C         -3.578413   -0.461367    2.656796
 C         -3.855271   -0.838458    3.971939
 C         -5.020329   -1.540075    4.300152
 C         -5.908237   -1.835003    3.257485
 C         -5.637096   -1.457132    1.943981
 H         -2.666005    0.089595    2.457524
 H         -3.149240   -0.574227    4.755890
 H         -6.834744   -2.361903    3.473175
 H         -6.363794   -1.702197    1.177820
 C          5.306360    1.974385   -5.717439
 H          4.760401    1.361361   -6.441666
 H          5.007184    3.018343   -5.880358
 C          5.532758    3.759859    4.393356
 H          5.681810    4.802055    4.094614
 H          4.753558    3.736928    5.164715
 C         -5.532622   -3.759815   -4.393013
 H         -4.753561   -3.736640   -5.164503
 H         -5.681381   -4.802069   -4.094322
 C         -5.306458   -1.974383    5.717763
 H         -5.007021   -3.018256    5.880751
 H         -4.760723   -1.361190    6.442018
 H         -6.374970   -1.906079    5.948724
 H         -6.460563   -3.412871   -4.864935
 H          6.460532    3.412727    4.865465
 H          6.374835    1.905812   -5.948501
 C          1.457544    2.543014   -0.179821
 C          1.952623    3.215212   -1.268673
 S          1.481807    3.587569    1.236254
 C          2.361796    4.549969   -0.973768
 H          2.010369    2.772792   -2.256021
 C          2.172707    4.911134    0.335338
 H          2.778853    5.225639   -1.713688
 C         -1.457561   -2.542912    0.180288
 C         -1.952643   -3.215094    1.269148
 S         -1.481869   -3.587467   -1.235785
 C         -2.361844   -4.549845    0.974253
 H         -2.010374   -2.772668    2.256494
 C         -2.172780   -4.911017   -0.334855
 H         -2.778907   -5.225504    1.714179
 C          2.494434    6.218668    0.996428
 H          2.900459    6.915520    0.256888
 H          1.606146    6.680015    1.443685
 H          3.238365    6.098712    1.792886
 C         -2.494544   -6.218545   -0.995938
 H         -1.606271   -6.679915   -1.443202
 H         -2.900580   -6.915385   -0.256393
 H         -3.238479   -6.098572   -1.792390
 C         -8.115794    2.956543   -0.285249
 C          8.115777   -2.956532    0.285353
 H         -8.520155    3.953505   -0.417704
 H          8.520132   -3.953500    0.417779
 C         -8.946752    1.824292   -0.165943
 C          8.946745   -1.824300    0.165938
 S          7.980573   -0.341168   -0.037522
 S         -7.980572    0.341177    0.037600
 F         14.954051    3.699600   -0.445925
 F         16.700844    1.700009   -0.145048
 F        -16.700801   -1.700269    0.143478
 F        -14.954002   -3.699817    0.444603
