        90
S0: Total Energy = -2893.36825643
 O          5.757781   -5.575678   -1.880131
 O          1.193865   -5.370056   -1.855275
 C          4.743172   -4.929527   -1.646247
 C          4.793905   -3.534457   -1.148343
 C          6.026019   -2.914649   -0.963668
 H          6.930819   -3.473182   -1.176487
 C          6.094634   -1.596921   -0.514684
 H          7.074722   -1.154182   -0.383444
 C          4.939445   -0.849529   -0.242896
 C          2.448682   -0.770530   -0.173625
 C          3.668395   -1.473752   -0.426659
 C          3.611238   -2.822771   -0.872508
 C          2.344022   -3.439020   -1.067686
 C          2.259821   -4.814521   -1.617079
 C          1.199410   -1.435612   -0.261017
 C          1.184614   -2.767621   -0.766473
 H          0.250354   -3.269736   -0.980611
 O          1.548807    5.277521    1.894553
 O          6.116735    5.206759    1.836770
 C          2.574821    4.658703    1.637574
 C          2.566074    3.281132    1.086438
 C          1.363684    2.683602    0.798044
 H          0.464656    3.242060    1.023557
 C          1.290199    1.354493    0.289841
 C          2.493893    0.611831    0.190786
 C          4.985193    0.535410    0.230357
 C          3.757849    1.237415    0.429629
 C          3.790028    2.587647    0.874222
 C          5.018053    3.225286    1.131710
 C          5.060757    4.622528    1.623712
 C          6.187745    1.209890    0.486311
 H          7.136256    0.706509    0.343592
 C          6.206836    2.530019    0.932675
 H          7.146877    3.032131    1.132354
 N          3.467651   -5.479671   -1.851697
 N          3.824875    5.249759    1.848853
 C          3.364770   -6.850643   -2.367233
 H          2.762924   -7.454597   -1.685036
 H          2.880326   -6.844691   -3.346812
 H          4.371956   -7.251609   -2.446453
 C          3.815455    6.625870    2.360590
 H          3.243724    7.264315    1.683899
 H          3.344567    6.652982    3.346342
 H          4.846596    6.963725    2.425166
 O         -1.549698   -5.277361    1.895914
 O         -6.117752   -5.206947    1.834701
 C         -2.575625   -4.658579    1.638442
 C         -2.566641   -3.281252    1.086663
 C         -1.364091   -2.683934    0.798317
 H         -0.465372   -3.242677    1.024244
 C         -1.290324   -1.355020    0.289760
 C         -2.493937   -0.612253    0.190306
 C         -4.985273   -0.535557    0.229218
 C         -3.757987   -1.237641    0.428911
 C         -3.790423   -2.587793    0.873771
 C         -5.018630   -3.225361    1.130778
 C         -5.061614   -4.622490    1.623049
 C         -6.187905   -1.209977    0.484649
 H         -7.136356   -0.706604    0.341540
 C         -6.207253   -2.530147    0.931003
 H         -7.147424   -3.032222    1.130164
 O         -5.756509    5.576528   -1.879336
 O         -1.192538    5.369134   -1.855604
 C         -4.742167    4.929828   -1.645710
 C         -4.793287    3.534598   -1.148497
 C         -6.025511    2.914913   -0.964195
 H         -6.930220    3.473595   -1.177002
 C         -6.094356    1.597076   -0.515560
 H         -7.074540    1.154501   -0.384460
 C         -4.939297    0.849475   -0.243819
 C         -2.448529    0.770150   -0.174126
 C         -3.668156    1.473555   -0.427287
 C         -3.610734    2.822659   -0.872782
 C         -2.343431    3.438812   -1.067786
 C         -2.258822    4.814395   -1.617004
 C         -1.199294    1.435087   -0.261299
 C         -1.184136    2.767159   -0.766640
 H         -0.249708    3.269074   -0.980726
 N         -3.825795   -5.249173    1.850369
 N         -3.466605    5.480023   -1.850765
 C         -3.816645   -6.624726    2.363600
 H         -3.335414   -6.652029    3.344221
 H         -4.848436   -6.958233    2.439246
 H         -3.254908   -7.266974    1.681993
 C         -3.364949    6.851420   -2.365426
 H         -4.372340    7.252006   -2.444164
 H         -2.763400    7.455359   -1.683008
 H         -2.880959    6.846317   -3.345214
 C         -0.022728   -0.706720    0.016208
 C          0.022842    0.706115    0.016191
        90
T1: Total Energy = -2893.31500872
 O         -5.963238   -5.375697    1.836518
 O         -1.391585   -5.307657    1.888010
 C         -4.923444   -4.760170    1.621711
 C         -4.923823   -3.367586    1.125362
 C         -6.145290   -2.706485    0.925198
 H         -7.065523   -3.242945    1.126993
 C         -6.169789   -1.396168    0.486102
 H         -7.131715   -0.918376    0.346837
 C         -4.974582   -0.674637    0.226862
 C         -2.486489   -0.677286    0.180718
 C         -3.728335   -1.342099    0.418807
 C         -3.717675   -2.693667    0.866730
 C         -2.472756   -3.346308    1.085407
 C         -2.438698   -4.720142    1.633639
 C         -1.244303   -1.392957    0.287182
 C         -1.278765   -2.708156    0.800324
 H         -0.365006   -3.242358    1.025676
 O         -1.365178    5.315115   -1.883475
 O         -5.936559    5.402804   -1.840720
 C         -2.415290    4.732084   -1.631170
 C         -2.456284    3.358150   -1.083679
 C         -1.265537    2.714518   -0.797459
 H         -0.349169    3.244756   -1.021537
 C         -1.237549    1.398912   -0.284915
 C         -2.483165    0.688976   -0.179804
 C         -4.971201    0.697550   -0.229092
 C         -3.721708    1.359432   -0.419288
 C         -3.704417    2.711002   -0.867000
 C         -4.907165    3.390278   -1.127436
 C         -4.899845    4.782821   -1.623883
 C         -6.162817    1.424407   -0.490013
 H         -7.127074    0.950925   -0.352108
 C         -6.131860    2.734593   -0.929102
 H         -7.049433    3.275099   -1.132244
 N         -3.669499   -5.348170    1.849431
 N         -3.642945    5.365494   -1.849063
 C         -3.617781   -6.721662    2.365301
 H         -3.044580   -7.350174    1.680343
 H         -3.127294   -6.733007    3.341578
 H         -4.639340   -7.083266    2.450563
 C         -3.584314    6.738896   -2.364459
 H         -3.009501    7.364679   -1.678357
 H         -3.092138    6.748378   -3.339910
 H         -4.604131    7.105001   -2.451332
 O          1.365183   -5.315240   -1.883557
 O          5.936499   -5.402950   -1.840544
 C          2.415249   -4.732195   -1.631205
 C          2.456242   -3.358238   -1.083630
 C          1.265683   -2.714692   -0.797412
 H          0.349269   -3.244862   -1.021480
 C          1.237697   -1.398825   -0.284954
 C          2.483207   -0.688981   -0.179828
 C          4.971265   -0.697636   -0.229034
 C          3.721759   -1.359475   -0.419314
 C          3.704448   -2.711048   -0.866983
 C          4.907143   -3.390321   -1.127386
 C          4.899818   -4.782924   -1.623809
 C          6.162709   -1.424410   -0.489885
 H          7.126987   -0.950991   -0.351890
 C          6.131745   -2.734681   -0.929043
 H          7.049338   -3.275177   -1.132136
 O          5.963153    5.375861    1.836606
 O          1.391566    5.307762    1.888353
 C          4.923398    4.760260    1.621956
 C          4.923788    3.367618    1.125622
 C          6.145164    2.706555    0.925489
 H          7.065413    3.242986    1.127295
 C          6.169671    1.396153    0.486318
 H          7.131617    0.918402    0.347030
 C          4.974639    0.674725    0.227079
 C          2.486523    0.677318    0.180921
 C          3.728377    1.342151    0.419069
 C          3.717699    2.693709    0.866983
 C          2.472703    3.346386    1.085623
 C          2.438637    4.720248    1.633924
 C          1.244440    1.392887    0.287381
 C          1.278905    2.708324    0.800504
 H          0.365105    3.242463    1.025845
 N          3.642918   -5.365597   -1.849049
 N          3.669450    5.348273    1.849682
 C          3.584306   -6.738997   -2.364454
 H          3.092095   -6.748481   -3.339886
 H          4.604131   -7.105071   -2.451366
 H          3.009536   -7.364807   -1.678338
 C          3.617747    6.721775    2.365525
 H          4.639308    7.083381    2.450753
 H          3.044525    7.350275    1.680574
 H          3.127289    6.733137    3.341816
 C         -0.001545   -0.708654    0.001201
 C          0.001814    0.708678    0.001420
        90
S1: Total Energy = -2893.29213345
 O         -5.946240   -5.386769    1.851437
 O         -1.374099   -5.310120    1.895764
 C         -4.907909   -4.769385    1.633713
 C         -4.911956   -3.377630    1.134412
 C         -6.134233   -2.719775    0.934754
 H         -7.053232   -3.257453    1.138979
 C         -6.162254   -1.409099    0.492233
 H         -7.125621   -0.934034    0.353155
 C         -4.970781   -0.687157    0.230335
 C         -2.482929   -0.684118    0.181657
 C         -3.722395   -1.351384    0.422504
 C         -3.707921   -2.702133    0.872719
 C         -2.460267   -3.351767    1.090975
 C         -2.422584   -4.724458    1.641591
 C         -1.239875   -1.395224    0.287517
 C         -1.269960   -2.711607    0.803849
 H         -0.353829   -3.242214    1.028481
 O         -1.374902    5.309879   -1.896011
 O         -5.947051    5.385914   -1.851475
 C         -2.423296    4.724073   -1.641795
 C         -2.460770    3.351403   -1.091113
 C         -1.270364    2.711420   -0.803993
 H         -0.354314    3.242142   -1.028681
 C         -1.240081    1.395063   -0.287608
 C         -2.483030    0.683779   -0.181714
 C         -4.970883    0.686462   -0.230332
 C         -3.722597    1.350864   -0.422543
 C         -3.708326    2.701604   -0.872791
 C         -4.912463    3.376925   -1.134464
 C         -4.908627    4.768669   -1.633797
 C         -6.162465    1.408233   -0.492207
 H         -7.125761    0.933032   -0.353101
 C         -6.134642    2.718905   -0.934751
 H         -7.053721    3.256449   -1.138961
 N         -3.652310   -5.354135    1.860358
 N         -3.653118    5.353580   -1.860517
 C         -3.597099   -6.726591    2.378654
 H         -3.023229   -7.355048    1.694201
 H         -3.105399   -6.735156    3.354369
 H         -4.617790   -7.090203    2.465749
 C         -3.598119    6.726030   -2.378850
 H         -3.024356    7.354600   -1.694409
 H         -3.106409    6.734643   -3.354559
 H         -4.618866    7.089479   -2.465966
 O          1.374917   -5.309837   -1.896055
 O          5.947065   -5.385881   -1.851451
 C          2.423308   -4.724038   -1.641811
 C          2.460777   -3.351369   -1.091125
 C          1.270369   -2.711387   -0.804012
 H          0.354319   -3.242109   -1.028707
 C          1.240083   -1.395034   -0.287621
 C          2.483031   -0.683754   -0.181697
 C          4.970885   -0.686445   -0.230273
 C          3.722600   -1.350840   -0.422514
 C          3.708331   -2.701574   -0.872782
 C          4.912471   -3.376898   -1.134436
 C          4.908639   -4.768635   -1.633787
 C          6.162468   -1.408217   -0.492136
 H          7.125763   -0.933023   -0.353003
 C          6.134648   -2.718886   -0.934691
 H          7.053729   -3.256433   -1.138887
 O          5.946224    5.386698    1.851762
 O          1.374085    5.310048    1.896033
 C          4.907897    4.769333    1.633971
 C          4.911948    3.377602    1.134603
 C          6.134227    2.719752    0.934937
 H          7.053224    3.257418    1.139201
 C          6.162250    1.409092    0.492367
 H          7.125618    0.934027    0.353294
 C          4.970779    0.687163    0.230423
 C          2.482928    0.684135    0.181701
 C          3.722392    1.351390    0.422588
 C          3.707916    2.702120    0.872860
 C          2.460260    3.351744    1.091135
 C          2.422572    4.724402    1.641831
 C          1.239873    1.395240    0.287571
 C          1.269955    2.711598    0.803967
 H          0.353823    3.242191    1.028628
 N          3.653133   -5.353534   -1.860552
 N          3.652296    5.354067    1.860644
 C          3.598137   -6.725970   -2.378925
 H          3.106257   -6.734571   -3.354547
 H          4.618894   -7.089347   -2.466227
 H          3.024537   -7.354612   -1.694412
 C          3.597082    6.726489    2.379031
 H          4.617773    7.090090    2.466169
 H          3.023227    7.354996    1.694609
 H          3.105363    6.734991    3.354737
 C          0.000052   -0.709642   -0.000047
 C         -0.000052    0.709667   -0.000029
