       132
S0: Total Energy = -5954.60093792
 C         -7.000603   -1.891281   -0.024121
 C         -6.642924   -0.528179   -0.007151
 C         -5.246490   -0.348376    0.004360
 C         -4.537108   -1.564956   -0.003678
 C         -3.138373   -1.381088   -0.011468
 C         -2.804797   -0.037987    0.000744
 C         -1.371759    0.144885    0.003982
 C         -0.793735   -1.152101    0.015339
 C          0.583685   -1.305186    0.008195
 S         -5.601250   -2.963669   -0.021318
 S         -4.175471    1.039848    0.017382
 C         -1.881165   -2.253121    0.010120
 H          1.042182   -2.289485    0.010010
 C          7.000604    1.891283    0.024128
 C          6.642924    0.528181    0.007165
 C          5.246490    0.348377   -0.004345
 C          4.537108    1.564958    0.003688
 C          3.138374    1.381090    0.011477
 C          2.804797    0.037989   -0.000731
 C          1.371760   -0.144883   -0.003969
 C          0.793736    1.152102   -0.015328
 C         -0.583684    1.305188   -0.008182
 S          5.601250    2.963671    0.021322
 S          4.175471   -1.039846   -0.017367
 C          1.881166    2.253123   -0.010111
 H         -1.042182    2.289487   -0.009997
 C        -10.531002   -0.945705   -0.045610
 C        -11.525031    0.014709   -0.045646
 C        -11.309832    1.476022   -0.021005
 O        -10.240861    2.078440   -0.001889
 C        -12.650648    2.106487   -0.022732
 C        -12.946126    3.460615   -0.002165
 C        -14.295103    3.800819   -0.008422
 C        -15.307814    2.841083   -0.034044
 C        -14.986608    1.482772   -0.054626
 C        -13.637303    1.103610   -0.049024
 C        -12.970751   -0.222987   -0.066267
 C        -13.641268   -1.436338   -0.098908
 C        -15.064723   -1.550452   -0.117452
 N        -16.220346   -1.700791   -0.133704
 C        -13.004919   -2.714535   -0.119875
 N        -12.536049   -3.781771   -0.138303
 H        -10.871007   -1.975235   -0.060307
 H        -15.789853    0.759366   -0.074035
 C         10.531003    0.945706    0.045613
 C         11.525030   -0.014709    0.045650
 C         11.309828   -1.476022    0.021005
 O         10.240855   -2.078438    0.001902
 C         12.650643   -2.106489    0.022707
 C         12.946118   -3.460617    0.002123
 C         14.295096   -3.800824    0.008354
 C         15.307808   -2.841089    0.033966
 C         14.986605   -1.482777    0.054566
 C         13.637300   -1.103614    0.048991
 C         12.970751    0.222984    0.066262
 C         13.641271    1.436333    0.098923
 C         15.064726    1.550442    0.117445
 N         16.220350    1.700775    0.133682
 C         13.004925    2.714531    0.119933
 N         12.536057    3.781767    0.138390
 H         10.871009    1.975236    0.060304
 H         15.789851   -0.759373    0.073966
 C         -1.897807   -3.098262    1.304160
 C         -2.569333   -4.329755    1.337455
 C         -2.669599   -5.062519    2.519273
 C         -2.104564   -4.597575    3.713865
 C         -1.443983   -3.363780    3.679547
 C         -1.341985   -2.625821    2.499735
 H         -3.008685   -4.731826    0.429502
 H         -3.197039   -6.013730    2.509733
 H         -0.999760   -2.968866    4.590482
 H         -0.825140   -1.671941    2.519221
 C         -1.707756   -3.107109   -1.263571
 C         -0.799142   -4.176562   -1.285031
 C         -0.570638   -4.900974   -2.453113
 C         -1.240572   -4.591836   -3.645088
 C         -2.141457   -3.521508   -3.621713
 C         -2.371364   -2.790551   -2.454768
 H         -0.271207   -4.456260   -0.378323
 H          0.140671   -5.723812   -2.436175
 H         -2.675596   -3.250770   -4.529687
 H         -3.072482   -1.962282   -2.482321
 C          1.707757    3.107114    1.263577
 C          0.799145    4.176567    1.285036
 C          0.570642    4.900982    2.453117
 C          1.240576    4.591846    3.645092
 C          2.141460    3.521517    3.621719
 C          2.371366    2.790557    2.454775
 H          0.271209    4.456264    0.378328
 H         -0.140666    5.723821    2.436178
 H          2.675599    3.250779    4.529693
 H          3.072483    1.962288    2.482329
 C          1.897806    3.098261   -1.304154
 C          2.569329    4.329756   -1.337450
 C          2.669593    5.062518   -2.519270
 C          2.104561    4.597570   -3.713861
 C          1.443984    3.363774   -3.679542
 C          1.341987    2.625816   -2.499728
 H          3.008678    4.731830   -0.429497
 H          3.197030    6.013731   -2.509730
 H          0.999763    2.968857   -4.590476
 H          0.825144    1.671935   -2.519213
 C         -2.184108   -5.410136    4.984663
 H         -1.360959   -6.134648    5.044677
 H         -2.120856   -4.772049    5.872133
 C         -1.016016   -5.402845   -4.899434
 H         -1.258462   -4.825832   -5.797656
 H          0.023960   -5.737343   -4.979105
 C          1.016025    5.402858    4.899437
 H         -0.023923    5.737455    4.979053
 H          1.258366    4.825810    5.797664
 C          2.184106    5.410129   -4.984660
 H          2.120805    4.772046   -5.872129
 H          1.360985    6.134675   -5.044653
 H         -3.118945   -5.978159    5.038681
 H         -1.646425   -6.301978   -4.908678
 H          1.646521    6.301930    4.908729
 H          3.118964    5.978115   -5.038701
 S          8.030520   -0.516226    0.006357
 S         -8.030520    0.516228   -0.006338
 C          8.377362    2.098590    0.035869
 C         -8.377361   -2.098588   -0.035864
 H          8.862355    3.068227    0.049682
 H         -8.862355   -3.068225   -0.049681
 C          9.115557    0.901488    0.030114
 C         -9.115557   -0.901487   -0.030106
 H        -16.342285    3.167259   -0.037480
 H         16.342279   -3.167267    0.037380
 H        -12.168764    4.216651    0.017891
 H         12.168755   -4.216652   -0.017926
 F        -14.640847    5.099640    0.010916
 F         14.640837   -5.099645   -0.011001
       132
T1: Total Energy = -5954.55550559
 C         -6.969407   -1.911567   -0.020911
 C         -6.605335   -0.540686    0.001149
 C         -5.225302   -0.361898    0.013533
 C         -4.500934   -1.590700    0.001011
 C         -3.123747   -1.406413   -0.005543
 C         -2.780068   -0.040545    0.012606
 C         -1.377792    0.139690    0.010420
 C         -0.780809   -1.168476    0.012852
 C          0.584827   -1.313621   -0.001216
 S         -5.572513   -2.990053   -0.020897
 S         -4.160832    1.036852    0.032869
 C         -1.864005   -2.273628    0.008527
 H          1.051221   -2.293907   -0.006643
 C          6.969403    1.911581    0.020876
 C          6.605335    0.540699   -0.001202
 C          5.225303    0.361908   -0.013629
 C          4.500933    1.590710   -0.001122
 C          3.123746    1.406419    0.005398
 C          2.780069    0.040551   -0.012759
 C          1.377793   -0.139685   -0.010589
 C          0.780810    1.168481   -0.013022
 C         -0.584826    1.313626    0.001043
 S          5.572507    2.990065    0.020818
 S          4.160835   -1.036843   -0.032999
 C          1.864004    2.273633   -0.008689
 H         -1.051219    2.293912    0.006471
 C        -10.495372   -0.958711   -0.043706
 C        -11.492278    0.011330   -0.043137
 C        -11.272109    1.472734   -0.016209
 O        -10.199961    2.070708    0.007046
 C        -12.609509    2.110421   -0.021986
 C        -12.900721    3.464717   -0.002160
 C        -14.249638    3.809577   -0.013177
 C        -15.263111    2.853048   -0.042672
 C        -14.944831    1.491985   -0.062358
 C        -13.597875    1.109272   -0.051920
 C        -12.930654   -0.218884   -0.066866
 C        -13.607575   -1.435874   -0.099685
 C        -15.029740   -1.544314   -0.120730
 N        -16.186659   -1.690515   -0.138977
 C        -12.978864   -2.716058   -0.117462
 N        -12.519311   -3.788249   -0.133411
 H        -10.840100   -1.986016   -0.061636
 H        -15.750002    0.770769   -0.084992
 C         10.495369    0.958731    0.043813
 C         11.492277   -0.011308    0.043291
 C         11.272111   -1.472713    0.016349
 O         10.199964   -2.070688   -0.006961
 C         12.609512   -2.110399    0.022195
 C         12.900726   -3.464694    0.002383
 C         14.249643   -3.809553    0.013471
 C         15.263113   -2.853022    0.043021
 C         14.944831   -1.491959    0.062690
 C         13.597875   -1.109249    0.052182
 C         12.930652    0.218907    0.067093
 C         13.607569    1.435898    0.099948
 C         15.029733    1.544339    0.121072
 N         16.186651    1.690541    0.139384
 C         12.978856    2.716081    0.117686
 N         12.519302    3.788272    0.133609
 H         10.840095    1.986036    0.061763
 H         15.749999   -0.770743    0.085368
 C         -1.876774   -3.117772    1.303226
 C         -2.537572   -4.355059    1.335705
 C         -2.634679   -5.085989    2.518631
 C         -2.077843   -4.613272    3.714293
 C         -1.428942   -3.373299    3.680279
 C         -1.330625   -2.636404    2.499619
 H         -2.970430   -4.762846    0.427323
 H         -3.153119   -6.041998    2.509313
 H         -0.992228   -2.972280    4.592034
 H         -0.823610   -1.677210    2.520205
 C         -1.692140   -3.122745   -1.268307
 C         -0.786131   -4.194226   -1.292459
 C         -0.557341   -4.912800   -2.463928
 C         -1.224043   -4.595368   -3.655699
 C         -2.121623   -3.522301   -3.629119
 C         -2.351480   -2.796419   -2.459124
 H         -0.261141   -4.480386   -0.386122
 H          0.151240   -5.737906   -2.449766
 H         -2.652708   -3.245060   -4.536783
 H         -3.050181   -1.965968   -2.485013
 C          1.692124    3.122749    1.268144
 C          0.785965    4.194102    1.292358
 C          0.557164    4.912654    2.463840
 C          1.224001    4.595324    3.655562
 C          2.121725    3.522378    3.628922
 C          2.351593    2.796519    2.458916
 H          0.260861    4.480179    0.386061
 H         -0.151533    5.737659    2.449726
 H          2.652916    3.245215    4.536549
 H          3.050408    1.966162    2.484759
 C          1.876788    3.117767   -1.303396
 C          2.537742    4.354969   -1.335938
 C          2.634864    5.085869   -2.518881
 C          2.077889    4.613205   -3.714500
 C          1.428836    3.373314   -3.680425
 C          1.330505    2.636448   -2.499748
 H          2.970717    4.762713   -0.427592
 H          3.153426    6.041813   -2.509612
 H          0.992014    2.972335   -4.592145
 H          0.823372    1.677316   -2.520287
 C         -2.154592   -5.423968    4.986188
 H         -1.326293   -6.142303    5.048543
 H         -2.097638   -4.783969    5.872603
 C         -0.999185   -5.400530   -4.913533
 H         -1.238046   -4.818369   -5.809296
 H          0.039781   -5.738103   -4.992380
 C          0.999130    5.400463    4.913408
 H         -0.039850    5.737984    4.992280
 H          1.238040    4.818308    5.809160
 C          2.154658    5.423873   -4.986411
 H          2.097517    4.783874   -5.872813
 H          1.326473    6.142346   -5.048700
 H         -3.085367   -5.998585    5.038851
 H         -1.632678   -6.297336   -4.927961
 H          1.632580    6.297300    4.927829
 H          3.085523    5.998335   -5.039165
 S          8.004273   -0.505878   -0.003611
 S         -8.004271    0.505894    0.003601
 C          8.337969    2.120300    0.035207
 C         -8.337973   -2.120284   -0.035190
 H          8.824252    3.088741    0.053012
 H         -8.824259   -3.088724   -0.052969
 C          9.084394    0.915594    0.026472
 C         -9.084396   -0.915576   -0.026429
 H        -16.297116    3.180928   -0.049927
 H         16.297118   -3.180901    0.050329
 H        -12.121367    4.218713    0.020778
 H         12.121374   -4.218691   -0.020597
 F        -14.590610    5.111172    0.005213
 F         14.590617   -5.111147   -0.004901
       132
S1: Total Energy = -5954.54071951
 C         -6.973094   -1.906732   -0.014973
 C         -6.612788   -0.540973    0.005310
 C         -5.225219   -0.362211    0.017664
 C         -4.506783   -1.587165    0.007170
 C         -3.123532   -1.402025    0.000152
 C         -2.782831   -0.040633    0.015099
 C         -1.376391    0.140618    0.010946
 C         -0.781613   -1.166890    0.017153
 C          0.585569   -1.313058    0.002821
 S         -5.577765   -2.984942   -0.013242
 S         -4.162045    1.034969    0.033842
 C         -1.865518   -2.270300    0.016376
 H          1.051297   -2.293581    0.000654
 C          6.973093    1.906735    0.014940
 C          6.612788    0.540976   -0.005338
 C          5.225220    0.362213   -0.017683
 C          4.506783    1.587165   -0.007192
 C          3.123532    1.402025   -0.000178
 C          2.782831    0.040632   -0.015123
 C          1.376391   -0.140619   -0.010973
 C          0.781613    1.166889   -0.017179
 C         -0.585569    1.313057   -0.002852
 S          5.577764    2.984944    0.013222
 S          4.162046   -1.034969   -0.033847
 C          1.865518    2.270299   -0.016406
 H         -1.051297    2.293580   -0.000690
 C        -10.506522   -0.957807   -0.043124
 C        -11.499624    0.009215   -0.044267
 C        -11.277949    1.471811   -0.012055
 O        -10.204875    2.067695    0.014790
 C        -12.614235    2.109910   -0.017124
 C        -12.904348    3.464189    0.008272
 C        -14.253129    3.810656   -0.003129
 C        -15.267347    2.854800   -0.038419
 C        -14.950973    1.493564   -0.063757
 C        -13.603655    1.108175   -0.053102
 C        -12.941254   -0.218596   -0.073169
 C        -13.618534   -1.436841   -0.115612
 C        -15.039982   -1.545169   -0.141934
 N        -16.197415   -1.690093   -0.164889
 C        -12.989430   -2.715852   -0.140471
 N        -12.527181   -3.787305   -0.162608
 H        -10.850095   -1.985687   -0.061919
 H        -15.756701    0.773090   -0.090620
 C         10.506522    0.957812    0.043099
 C         11.499623   -0.009210    0.044264
 C         11.277947   -1.471806    0.012055
 O         10.204873   -2.067688   -0.014824
 C         12.614232   -2.109908    0.017188
 C         12.904343   -3.464187   -0.008175
 C         14.253122   -3.810658    0.003286
 C         15.267341   -2.854803    0.038599
 C         14.950969   -1.493566    0.063903
 C         13.603652   -1.108175    0.053190
 C         12.941253    0.218598    0.073204
 C         13.618535    1.436843    0.115637
 C         15.039981    1.545167    0.142026
 N         16.197413    1.690088    0.165035
 C         12.989433    2.715857    0.140420
 N         12.527187    3.787312    0.162529
 H         10.850096    1.985693    0.061891
 H         15.756697   -0.773093    0.090785
 C         -1.880176   -3.109057    1.314412
 C         -2.537269   -4.348199    1.350189
 C         -2.635968   -5.073734    2.536237
 C         -2.084654   -4.593588    3.731589
 C         -1.439737   -3.351550    3.694137
 C         -1.340063   -2.619860    2.510523
 H         -2.966141   -4.761367    0.442402
 H         -3.151398   -6.031355    2.529751
 H         -1.007713   -2.944762    4.605527
 H         -0.837025   -1.658465    2.528712
 C         -1.693498   -3.122333   -1.258267
 C         -0.789680   -4.195703   -1.279425
 C         -0.561523   -4.916748   -2.449454
 C         -1.226711   -4.599996   -3.642333
 C         -2.122022   -3.524903   -3.618564
 C         -2.351099   -2.796301   -2.450194
 H         -0.266141   -4.481424   -0.372114
 H          0.145245   -5.743334   -2.433321
 H         -2.651778   -3.248243   -4.527141
 H         -3.047770   -1.964172   -2.478179
 C          1.693497    3.122341    1.258231
 C          0.789687    4.195717    1.279379
 C          0.561529    4.916769    2.449404
 C          1.226709    4.600019    3.642288
 C          2.122011    3.524918    3.618529
 C          2.351089    2.796310    2.450164
 H          0.266154    4.481437    0.372065
 H         -0.145233    5.743360    2.433264
 H          2.651760    3.248258    4.527111
 H          3.047753    1.964174    2.478157
 C          1.880178    3.109046   -1.314448
 C          2.537300    4.348173   -1.350241
 C          2.636001    5.073698   -2.536295
 C          2.084661    4.593557   -3.731637
 C          1.439716    3.351534   -3.694169
 C          1.340040    2.619855   -2.510549
 H          2.966192    4.761337   -0.442462
 H          3.151453    6.031308   -2.529822
 H          1.007671    2.944750   -4.605551
 H          0.836979    1.658470   -2.528726
 C         -2.163272   -5.398475    5.006942
 H         -1.332779   -6.113707    5.075392
 H         -2.111476   -4.754159    5.890516
 C         -1.002615   -5.407973   -4.898415
 H         -1.239461   -4.827012   -5.795464
 H          0.035602   -5.748145   -4.975669
 C          1.002615    5.408003    4.898366
 H         -0.035573    5.748274    4.975561
 H          1.239353    4.827010    5.795422
 C          2.163284    5.398434   -5.006996
 H          2.111413    4.754118   -5.890566
 H          1.332836    6.113720   -5.075418
 H         -3.092290   -5.975938    5.058950
 H         -1.638232   -6.303278   -4.911465
 H          1.638319    6.303246    4.911463
 H          3.092338    5.975836   -5.059041
 S          8.009003   -0.504680   -0.006561
 S         -8.009002    0.504684    0.006537
 C          8.348455    2.116099    0.029809
 C         -8.348456   -2.116094   -0.029851
 H          8.833312    3.085265    0.047304
 H         -8.833313   -3.085259   -0.047352
 C          9.089141    0.916101    0.022818
 C         -9.089141   -0.916096   -0.022854
 H        -16.301032    3.183930   -0.045606
 H         16.301025   -3.183935    0.045832
 H        -12.124257    4.217302    0.035713
 H         12.124251   -4.217300   -0.035635
 F        -14.593004    5.112692    0.020659
 F         14.592995   -5.112694   -0.020468
