       132
S0: Total Energy = -6153.05163325
 C         -6.964436    2.018121    0.024754
 C         -6.631527    0.648415    0.007643
 C         -5.238946    0.443294   -0.004577
 C         -4.507564    1.647078    0.002907
 C         -3.112609    1.437888    0.010003
 C         -2.803543    0.088741   -0.001812
 C         -1.374145   -0.120039   -0.004690
 C         -0.772709    1.166309   -0.016473
 C          0.607185    1.294411   -0.008699
 S         -5.545895    3.064960    0.021281
 S         -4.193421   -0.964187   -0.017781
 C         -1.839799    2.286962   -0.012822
 H          1.083210    2.270257   -0.010774
 C          6.964432   -2.018091   -0.024755
 C          6.631512   -0.648389   -0.007718
 C          5.238929   -0.443279    0.004449
 C          4.507556   -1.647068   -0.003028
 C          3.112597   -1.437884   -0.010168
 C          2.803527   -0.088738    0.001582
 C          1.374130    0.120041    0.004423
 C          0.772696   -1.166307    0.016216
 C         -0.607200   -1.294410    0.008429
 S          5.545900   -3.064941   -0.021276
 S          4.193400    0.964197    0.017578
 C          1.839785   -2.286958    0.012630
 H         -1.083223   -2.270257    0.010504
 C        -10.510554    1.136550    0.046811
 C        -11.522586    0.194463    0.045568
 C        -11.335517   -1.271468    0.018123
 O        -10.278342   -1.894206   -0.001704
 C        -12.686490   -1.874650    0.017965
 C        -13.010966   -3.224952   -0.006063
 C        -14.358561   -3.552323   -0.000993
 C        -15.336647   -2.548942    0.027818
 C        -15.010331   -1.198873    0.051732
 C        -13.653262   -0.854606    0.046601
 C        -12.961339    0.460929    0.066605
 C        -13.612561    1.684029    0.101521
 C        -15.034174    1.818587    0.120368
 N        -16.188081    1.980948    0.136897
 C        -12.955061    2.951509    0.124648
 N        -12.468177    4.010476    0.144844
 H        -10.832137    2.171931    0.062542
 H        -12.248128   -3.995763   -0.028039
 F        -14.756980   -4.830246   -0.023264
 F        -16.622999   -2.923077    0.031671
 H        -15.817363   -0.479622    0.072782
 C         10.510548   -1.136503   -0.046643
 C         11.522594   -0.194431   -0.045440
 C         11.335558    1.271508   -0.018157
 O         10.278398    1.894280    0.001450
 C         12.686547    1.874654   -0.017858
 C         13.011055    3.224950    0.006132
 C         14.358660    3.552284    0.001233
 C         15.336724    2.548875   -0.027374
 C         15.010376    1.198816   -0.051263
 C         13.653296    0.854583   -0.046307
 C         12.961339   -0.460930   -0.066352
 C         13.612519   -1.684055   -0.101203
 C         15.034127   -1.818666   -0.119846
 N         16.188030   -1.981070   -0.136210
 C         12.954960   -2.951499   -0.124468
 N         12.468005   -4.010432   -0.144742
 H         10.832122   -2.171890   -0.062260
 H         12.248237    3.995785    0.027953
 F         14.757108    4.830199    0.023477
 F         16.623086    2.922978   -0.031054
 H         15.817390    0.479539   -0.072150
 C         -1.841029    3.129771   -1.308607
 C         -2.490256    4.373084   -1.344531
 C         -2.576992    5.105210   -2.527817
 C         -2.020119    4.627824   -3.721332
 C         -1.381850    3.382413   -3.684375
 C         -1.293491    2.645047   -2.503106
 H         -2.922441    4.784920   -0.437532
 H         -3.087182    6.065795   -2.520273
 H         -0.944554    2.977790   -4.594394
 H         -0.793877    1.682000   -2.520642
 C         -1.650989    3.139913    1.259379
 C         -0.724548    4.194014    1.278609
 C         -0.483316    4.916365    2.445414
 C         -1.157653    4.620405    3.638249
 C         -2.076161    3.565109    3.617169
 C         -2.318927    2.836249    2.451526
 H         -0.192542    4.463443    0.371182
 H          0.241568    5.727223    2.426757
 H         -2.614130    3.304727    4.525905
 H         -3.033676    2.019761    2.480879
 C          1.651023   -3.139937   -1.259557
 C          0.724540   -4.193998   -1.278824
 C          0.483363   -4.916368   -2.445629
 C          1.157800   -4.620469   -3.638421
 C          2.076353   -3.565210   -3.617302
 C          2.319063   -2.836330   -2.451660
 H          0.192454   -4.463378   -0.371429
 H         -0.241559   -5.727194   -2.427004
 H          2.614400   -3.304878   -4.526006
 H          3.033850   -2.019874   -2.480980
 C          1.840962   -3.129740    1.308439
 C          2.490138   -4.373081    1.344395
 C          2.576826   -5.105193    2.527693
 C          2.019957   -4.627764    3.721192
 C          1.381741   -3.382327    3.684204
 C          1.293430   -2.644976    2.502922
 H          2.922313   -4.784955    0.437408
 H          3.086975   -6.065800    2.520169
 H          0.944447   -2.977671    4.594210
 H          0.793856   -1.681907    2.520437
 C         -2.084643    5.439153   -4.993753
 H         -1.248288    6.148259   -5.055097
 H         -2.033045    4.798232   -5.879931
 C         -0.918969    5.429686    4.891080
 H         -1.170787    4.858439    5.790397
 H          0.126516    5.746770    4.969771
 C          0.919182   -5.429776   -4.891248
 H         -0.126283   -5.746922   -4.969952
 H          1.170981   -4.858522   -5.790567
 C          2.084425   -5.439074    4.993628
 H          2.032787   -4.798140    5.879794
 H          1.248070   -6.148181    5.054945
 H         -3.008856    6.024173   -5.049004
 H         -1.534137    6.339320    4.898905
 H          1.534406   -6.339371   -4.899056
 H          3.008637   -6.024092    5.048929
 S          8.037718    0.370825   -0.007159
 S         -8.037743   -0.370783    0.007005
 C          8.336794   -2.250283   -0.036899
 C         -8.336795    2.250326    0.036978
 H          8.804147   -3.228577   -0.050866
 H         -8.804143    3.228621    0.051014
 C          9.096824   -1.066423   -0.031103
 C         -9.096834    1.066470    0.031186
       132
T1: Total Energy = -6153.00684742
 C         -6.932823   -2.038430   -0.023424
 C         -6.594435   -0.661234   -0.001370
 C         -5.217682   -0.456933    0.012495
 C         -4.471377   -1.672164    0.001279
 C         -3.097476   -1.462546   -0.003639
 C         -2.779322   -0.090952    0.013763
 C         -1.379900    0.114814    0.011307
 C         -0.759657   -1.182094    0.014731
 C          0.608574   -1.302576   -0.000173
 S         -5.516633   -3.090979   -0.021943
 S         -4.179377    0.960974    0.032462
 C         -1.822321   -2.306751    0.012997
 H          1.092118   -2.274389   -0.004927
 C          6.932820    2.038429    0.023398
 C          6.594432    0.661233    0.001393
 C          5.217679    0.456931   -0.012434
 C          4.471374    1.672162   -0.001227
 C          3.097474    1.462545    0.003730
 C          2.779319    0.090951   -0.013646
 C          1.379897   -0.114816   -0.011177
 C          0.759654    1.182092   -0.014605
 C         -0.608577    1.302574    0.000306
 S          5.516630    3.090978    0.021941
 S          4.179374   -0.960976   -0.032344
 C          1.822318    2.306749   -0.012888
 H         -1.092121    2.274388    0.005056
 C        -10.475818   -1.151102   -0.047033
 C        -11.490539   -0.200216   -0.044725
 C        -11.297808    1.266879   -0.015113
 O        -10.236889    1.883990    0.007500
 C        -12.645015    1.877424   -0.017525
 C        -12.965290    3.227796    0.006363
 C        -14.312966    3.560038   -0.001850
 C        -15.291468    2.559496   -0.033569
 C        -14.968444    1.206867   -0.057350
 C        -13.613492    0.858388   -0.048991
 C        -12.922230   -0.458203   -0.067780
 C        -13.580104   -1.685804   -0.102962
 C        -15.000280   -1.814321   -0.123072
 N        -16.155858   -1.970996   -0.140587
 C        -12.929993   -2.954921   -0.124337
 N        -12.450452   -4.018266   -0.143177
 H        -10.801726   -2.184528   -0.065753
 H        -12.200428    3.996596    0.030556
 F        -14.706885    4.840954    0.020121
 F        -16.578264    2.934910   -0.040617
 H        -15.777510    0.489924   -0.080902
 C         10.475816    1.151104    0.046886
 C         11.490538    0.200219    0.044587
 C         11.297810   -1.266878    0.015029
 O         10.236891   -1.883991   -0.007563
 C         12.645018   -1.877421    0.017452
 C         12.965294   -3.227793   -0.006388
 C         14.312971   -3.560033    0.001820
 C         15.291472   -2.559487    0.033487
 C         14.968446   -1.206858    0.057220
 C         13.613493   -0.858382    0.048868
 C         12.922230    0.458208    0.067609
 C         13.580106    1.685810    0.102727
 C         15.000282    1.814323    0.122821
 N         16.155861    1.970989    0.140326
 C         12.929999    2.954930    0.124024
 N         12.450463    4.018278    0.142817
 H         10.801724    2.184531    0.065549
 H         12.200434   -3.996595   -0.030543
 F         14.706893   -4.840948   -0.020107
 F         16.578269   -2.934899    0.040532
 H         15.777511   -0.489912    0.080731
 C         -1.820080   -3.146576    1.310744
 C         -2.458176   -4.395591    1.347489
 C         -2.542049   -5.124006    2.532977
 C         -1.994141   -4.636991    3.727030
 C         -1.367974   -3.385501    3.688704
 C         -1.282986   -2.651093    2.505489
 H         -2.883365   -4.814495    0.440569
 H         -3.042914   -6.089355    2.526967
 H         -0.938765   -2.973381    4.599061
 H         -0.793586   -1.682735    2.522859
 C         -1.634853   -3.156608   -1.261094
 C         -0.710546   -4.212420   -1.281507
 C         -0.469027   -4.930660   -2.450626
 C         -1.140618   -4.628498   -3.643620
 C         -2.056286   -3.570722   -3.620847
 C         -2.299030   -2.845211   -2.453246
 H         -0.181105   -4.486717   -0.374103
 H          0.253495   -5.743516   -2.433592
 H         -2.591598   -3.305457   -4.529598
 H         -3.011773   -2.026861   -2.482128
 C          1.634870    3.156609    1.261204
 C          0.710575    4.212433    1.281622
 C          0.469073    4.930677    2.450742
 C          1.140668    4.628509    3.643731
 C          2.056323    3.570721    3.620954
 C          2.299051    2.845206    2.453352
 H          0.181132    4.486735    0.374221
 H         -0.253439    5.743542    2.433712
 H          2.591638    3.305451    4.529702
 H          3.011785    2.026848    2.482231
 C          1.820059    3.146570   -1.310637
 C          2.458184    4.395571   -1.347406
 C          2.542042    5.123978   -2.532900
 C          1.994088    4.636969   -3.726936
 C          1.367893    3.385494   -3.688585
 C          1.282922    2.651094   -2.505365
 H          2.883409    4.814468   -0.440500
 H          3.042930    6.089314   -2.526909
 H          0.938649    2.973380   -4.598929
 H          0.793498    1.682747   -2.522716
 C         -2.056273   -5.444405    5.001783
 H         -1.214533   -6.146662    5.067094
 H         -2.011921   -4.800251    5.885899
 C         -0.901685   -5.433855   -4.898700
 H         -1.150290   -4.858895   -5.796446
 H          0.142906   -5.753898   -4.976183
 C          0.901758    5.433871    4.898813
 H         -0.142803    5.754023    4.976248
 H          1.150258    4.858870    5.796562
 C          2.056207    5.444375   -5.001694
 H          2.011765    4.800222   -5.885806
 H          1.214510    6.146688   -5.066962
 H         -2.976009   -6.036364    5.056037
 H         -1.519758   -6.341388   -4.910155
 H          1.519928    6.341337    4.910313
 H          2.975979    6.036274   -5.055998
 S          8.012234   -0.359261   -0.000087
 S         -8.012237    0.359260    0.000128
 C          8.297563    2.272382    0.038386
 C         -8.297565   -2.272382   -0.038470
 H          8.765871    3.249651    0.056126
 H         -8.765873   -3.249650   -0.056263
 C          9.065597    1.081744    0.029859
 C         -9.065599   -1.081743   -0.029942
       132
S1: Total Energy = -6152.99234895
 C         -6.936964   -2.032680   -0.020194
 C         -6.602274   -0.660923    0.000515
 C         -5.217694   -0.456533    0.014269
 C         -4.477643   -1.668015    0.004546
 C         -3.097577   -1.457642   -0.000559
 C         -2.782057   -0.090579    0.014552
 C         -1.378586    0.116052    0.010990
 C         -0.760662   -1.180440    0.017551
 C          0.609035   -1.302153    0.003025
 S         -5.522503   -3.085115   -0.017630
 S         -4.180562    0.959696    0.031792
 C         -1.824300   -2.303177    0.017971
 H          1.091717   -2.274305    0.000986
 C          6.936972    2.032684    0.020144
 C          6.602274    0.660929   -0.000562
 C          5.217694    0.456547   -0.014318
 C          4.477647    1.668033   -0.004596
 C          3.097581    1.457665    0.000518
 C          2.782057    0.090602   -0.014589
 C          1.378586   -0.116026   -0.011023
 C          0.760663    1.180467   -0.017584
 C         -0.609035    1.302180   -0.003057
 S          5.522516    3.085127    0.017573
 S          4.180557   -0.959677   -0.031833
 C          1.824305    2.303202   -0.018003
 H         -1.091717    2.274331   -0.001015
 C        -10.487750   -1.149222   -0.047021
 C        -11.497977   -0.201744   -0.045539
 C        -11.303980    1.266456   -0.012175
 O        -10.242049    1.881664    0.012874
 C        -12.650118    1.876866   -0.013883
 C        -12.969433    3.227224    0.013987
 C        -14.316956    3.560963    0.005532
 C        -15.296396    2.560827   -0.030569
 C        -14.975485    1.208244   -0.058335
 C        -13.619853    0.856823   -0.049664
 C        -12.934398   -0.457776   -0.071898
 C        -13.591782   -1.686880   -0.113198
 C        -15.011280   -1.816056   -0.136735
 N        -16.167263   -1.972484   -0.157284
 C        -12.940751   -2.954638   -0.138844
 N        -12.458928   -4.017413   -0.161356
 H        -10.812282   -2.183252   -0.066501
 H        -12.203834    3.995206    0.041403
 F        -14.709978    4.842301    0.031337
 F        -16.582633    2.938282   -0.037746
 H        -15.785120    0.492042   -0.084966
 C         10.487752    1.149205    0.047018
 C         11.497973    0.201722    0.045559
 C         11.303971   -1.266477    0.012153
 O         10.242037   -1.881679   -0.012934
 C         12.650106   -1.876893    0.013880
 C         12.969415   -3.227252   -0.014020
 C         14.316936   -3.560998   -0.005544
 C         15.296380   -2.560867    0.030607
 C         14.975475   -1.208283    0.058402
 C         13.619844   -0.856855    0.049708
 C         12.934395    0.457745    0.071969
 C         13.591785    1.686844    0.113335
 C         15.011284    1.816011    0.136889
 N         16.167268    1.972428    0.157453
 C         12.940761    2.954605    0.139015
 N         12.458945    4.017382    0.161601
 H         10.812290    2.183234    0.066509
 H         12.203813   -3.995230   -0.041473
 F         14.709953   -4.842337   -0.031375
 F         16.582615   -2.938328    0.037801
 H         15.785113   -0.492085    0.085069
 C         -1.824694   -3.138765    1.318310
 C         -2.458864   -4.389702    1.356976
 C         -2.545020   -5.113703    2.544944
 C         -2.003621   -4.620200    3.739390
 C         -1.381739   -3.366550    3.699017
 C         -1.294707   -2.636379    2.513501
 H         -2.879359   -4.813250    0.450084
 H         -3.042662   -6.080689    2.540709
 H         -0.958012   -2.949377    4.609598
 H         -0.809569   -1.665795    2.529534
 C         -1.636329   -3.154823   -1.254625
 C         -0.714437   -4.212775   -1.272636
 C         -0.473225   -4.932502   -2.440857
 C         -1.142734   -4.629746   -3.634954
 C         -2.055901   -3.569701   -3.614404
 C         -2.298205   -2.842460   -2.447871
 H         -0.186914   -4.487620   -0.364286
 H          0.247295   -5.747064   -2.422298
 H         -2.589437   -3.304041   -4.524044
 H         -3.008730   -2.022201   -2.478397
 C          1.636338    3.154838    1.254603
 C          0.714445    4.212788    1.272625
 C          0.473238    4.932507    2.440853
 C          1.142753    4.629744    3.634944
 C          2.055922    3.569700    3.614383
 C          2.298221    2.842467    2.447844
 H          0.186919    4.487639    0.364280
 H         -0.247282    5.747068    2.422302
 H          2.589462    3.304034    4.524018
 H          3.008748    2.022210    2.478361
 C          1.824694    3.138802   -1.318333
 C          2.458858    4.389742   -1.356992
 C          2.545010    5.113751   -2.544955
 C          2.003613    4.620251   -3.739405
 C          1.381738    3.366598   -3.699039
 C          1.294711    2.636420   -2.513527
 H          2.879351    4.813288   -0.450097
 H          3.042646    6.080739   -2.540715
 H          0.958014    2.949428   -4.609622
 H          0.809579    1.665832   -2.529566
 C         -2.068366   -5.422858    5.016900
 H         -1.224490   -6.121957    5.088185
 H         -2.029759   -4.775200    5.898695
 C         -0.904228   -5.436861   -4.888905
 H         -1.150347   -4.862216   -5.787511
 H          0.139616   -5.759668   -4.964694
 C          0.904256    5.436851    4.888902
 H         -0.139561    5.759751    4.964645
 H          1.150278    4.862162    5.787507
 C          2.068356    5.422918   -5.016909
 H          2.029704    4.775268   -5.898709
 H          1.224503    6.122047   -5.088167
 H         -2.986280   -6.017735    5.069542
 H         -1.524642   -6.342780   -4.900022
 H          1.524755    6.342712    4.900074
 H          2.986290    6.017762   -5.069569
 S          8.017141   -0.358778   -0.001456
 S         -8.017147    0.358775    0.001430
 C          8.308838    2.267197    0.035404
 C         -8.308829   -2.267201   -0.035445
 H          8.775856    3.245107    0.052948
 H         -8.775841   -3.245114   -0.052981
 C          9.070485    1.081281    0.027977
 C         -9.070483   -1.081289   -0.028010
