       140
S0: Total Energy = -6987.44183077
 C         -6.787660    1.784052    0.033485
 C         -6.621010    0.371660    0.034506
 C         -5.245305    0.139783    0.032695
 C         -4.596248    1.407542    0.027005
 C         -3.182560    1.294745    0.030656
 C         -2.801114   -0.037010    0.051430
 C         -1.365437   -0.177940    0.035009
 C         -0.824020    1.131362   -0.026327
 C          0.548340    1.318082   -0.063148
 S         -4.111226   -1.194603    0.054511
 C         -1.945662    2.203489   -0.040249
 H          0.986170    2.309984   -0.110642
 C          6.787662   -1.784059   -0.033432
 C          6.621008   -0.371667   -0.034483
 C          5.245303   -0.139794   -0.032702
 C          4.596249   -1.407555   -0.027012
 C          3.182560   -1.294761   -0.030710
 C          2.801112    0.036993   -0.051493
 C          1.365436    0.177921   -0.035077
 C          0.824020   -1.131381    0.026260
 C         -0.548341   -1.318100    0.063081
 S          4.111221    1.194589   -0.054563
 C          1.945663   -2.203508    0.040169
 H         -0.986172   -2.310001    0.110572
 C        -10.400791    1.334466    0.040124
 C        -11.529735    0.523097    0.047133
 C        -11.529721   -0.951360    0.041729
 O        -10.564125   -1.709416    0.038212
 C        -12.950278   -1.376851    0.039872
 C        -13.450209   -2.666602    0.032839
 C        -14.836748   -2.838868    0.031579
 C        -15.681012   -1.714187    0.037599
 C        -15.160698   -0.413726    0.045170
 C        -13.776353   -0.241756    0.046227
 C        -12.915873    0.974629    0.054579
 C        -13.407972    2.273400    0.071090
 C        -14.799794    2.589783    0.074308
 N        -15.922846    2.902404    0.077242
 C        -12.595265    3.446713    0.089735
 N        -11.977368    4.435495    0.106200
 H        -10.596920    2.400747    0.037107
 H        -12.782445   -3.521190    0.028323
 H        -15.854959    0.414506    0.049504
 C         10.400792   -1.334464   -0.040023
 C         11.529732   -0.523089   -0.047034
 C         11.529705    0.951369   -0.041662
 O         10.564102    1.709417   -0.038187
 C         12.950258    1.376871   -0.039820
 C         13.450179    2.666627   -0.032830
 C         14.836716    2.838904   -0.031573
 C         15.680989    1.714230   -0.037555
 C         15.160686    0.413764   -0.045084
 C         13.776343    0.241784   -0.046137
 C         12.915873   -0.974609   -0.054454
 C         13.407988   -2.273375   -0.070920
 C         14.799814   -2.589739   -0.074121
 N         15.922872   -2.902341   -0.077041
 C         12.595298   -3.446700   -0.089531
 N         11.977420   -4.435495   -0.105961
 H         10.596925   -2.400744   -0.036983
 H         12.782408    3.521210   -0.028341
 H         15.854954   -0.414462   -0.049391
 C         -1.963914    2.972162   -1.387398
 C         -2.283680    4.330709   -1.483931
 C         -2.356234    4.968559   -2.726115
 C         -2.115402    4.276671   -3.916272
 C         -1.803886    2.912201   -3.818222
 C         -1.729301    2.274458   -2.583823
 H         -2.473539    4.912079   -0.588893
 H         -2.603546    6.027194   -2.761821
 H         -1.616402    2.338650   -4.723292
 H         -1.488239    1.216153   -2.553229
 C         -1.771804    3.099471    1.203182
 C         -0.790452    4.105110    1.233776
 C         -0.566631    4.859925    2.382477
 C         -1.309291    4.645778    3.552683
 C         -2.278500    3.638422    3.525245
 C         -2.505493    2.878058    2.375358
 H         -0.197993    4.311877    0.348053
 H          0.201252    5.630222    2.368758
 H         -2.867865    3.436880    4.416805
 H         -3.256944    2.095574    2.405698
 C          1.771813   -3.099470   -1.203278
 C          0.790544   -4.105191   -1.233848
 C          0.566727   -4.859993   -2.382560
 C          1.309308   -4.645753   -3.552798
 C          2.278433   -3.638315   -3.525383
 C          2.505422   -2.877963   -2.375487
 H          0.198148   -4.312034   -0.348102
 H         -0.201090   -5.630356   -2.368820
 H          2.867733   -3.436697   -4.416969
 H          3.256801   -2.095413   -2.405846
 C          1.963919   -2.972205    1.387304
 C          2.283811   -4.330723    1.483822
 C          2.356369   -4.968594    2.725995
 C          2.115416   -4.276755    3.916157
 C          1.803777   -2.912312    3.818122
 C          1.729188   -2.274548    2.583734
 H          2.473772   -4.912055    0.588781
 H          2.603782   -6.027205    2.761689
 H          1.616198   -2.338798    4.723196
 H          1.488029   -1.216266    2.553153
 C         -2.167328    4.969192   -5.257384
 H         -1.157969    5.162030   -5.643944
 H         -2.684959    4.356519   -6.004076
 C         -1.081335    5.487558    4.785660
 H         -1.465481    4.993528    5.683655
 H         -0.016130    5.692869    4.938471
 C          1.081361   -5.487520   -4.785785
 H          0.016171   -5.692971   -4.938512
 H          1.465363   -4.993405   -5.683796
 C          2.167345   -4.969302    5.257255
 H          2.684863   -4.356588    6.003992
 H          1.157986   -5.162264    5.643752
 H         -2.683312    5.932138   -5.190824
 H         -1.587953    6.458218    4.702762
 H          1.588120   -6.458113   -4.702965
 H          2.683442   -5.932188    5.190702
 S          8.138568    0.470478   -0.039913
 S         -8.138571   -0.470483    0.039955
 C          8.114894   -2.187035   -0.030975
 C         -8.114891    2.187031    0.031061
 H          8.468057   -3.212005   -0.023823
 H         -8.468051    3.212002    0.023935
 C          9.013664   -1.095986   -0.036404
 C         -9.013664    1.095984    0.036483
 N         -5.548900    2.406296    0.043404
 N          5.548904   -2.406307   -0.043362
 C         -5.340799    3.848136    0.031398
 H         -4.477009    4.096817    0.649578
 H         -5.181630    4.221166   -0.984609
 H         -6.221248    4.330796    0.460533
 C          5.340807   -3.848148   -0.031318
 H          5.181612   -4.221145    0.984698
 H          4.477035   -4.096853   -0.649513
 H          6.221270   -4.330818   -0.460411
Cl        -17.416214   -1.898111    0.035861
Cl        -15.481517   -4.458549    0.022357
Cl         15.481473    4.458591   -0.022404
Cl         17.416190    1.898168   -0.035822
       140
T1: Total Energy = -6987.39964869
 C         -6.756697   -1.807139   -0.037794
 C         -6.588018   -0.389717   -0.035007
 C         -5.224354   -0.156959   -0.033851
 C         -4.561678   -1.434574   -0.030647
 C         -3.169415   -1.321033   -0.028485
 C         -2.778283    0.032902   -0.042851
 C         -1.371289    0.172867   -0.030893
 C         -0.812062   -1.146935    0.022868
 C          0.549795   -1.325608    0.056060
 S         -4.099240    1.187460   -0.047221
 C         -1.928702   -2.224136    0.034982
 H          0.995412   -2.314044    0.098163
 C          6.756748    1.807235    0.038127
 C          6.588065    0.389813    0.035382
 C          5.224399    0.157059    0.034386
 C          4.561726    1.434675    0.031233
 C          3.169462    1.321137    0.029173
 C          2.778329   -0.032798    0.043579
 C          1.371335   -0.172763    0.031675
 C          0.812106    1.147038   -0.022086
 C         -0.549750    1.325712   -0.055261
 S          4.099284   -1.187358    0.047868
 C          1.928745    2.224239   -0.034256
 H         -0.995367    2.314148   -0.097378
 C        -10.374440   -1.353418   -0.041198
 C        -11.502042   -0.533887   -0.044985
 C        -11.495835    0.944874   -0.040668
 O        -10.525161    1.696000   -0.037647
 C        -12.912782    1.378480   -0.039971
 C        -13.406541    2.669584   -0.035073
 C        -14.793608    2.848380   -0.035108
 C        -15.640008    1.727131   -0.040251
 C        -15.125302    0.423050   -0.045489
 C        -13.741871    0.244272   -0.045286
 C        -12.886319   -0.973244   -0.050651
 C        -13.384577   -2.277553   -0.061794
 C        -14.775942   -2.587053   -0.064422
 N        -15.901669   -2.893407   -0.066813
 C        -12.579955   -3.454039   -0.073925
 N        -11.970908   -4.449533   -0.084757
 H        -10.575270   -2.418223   -0.040647
 H        -12.735343    3.521512   -0.031238
 H        -15.823156   -0.402146   -0.049288
 C         10.374488    1.353483    0.040927
 C         11.502050    0.533900    0.044486
 C         11.495739   -0.944860    0.040261
 O         10.525008   -1.695914    0.037654
 C         12.912656   -1.378563    0.039326
 C         13.406326   -2.669701    0.034465
 C         14.793380   -2.848591    0.034211
 C         15.639859   -1.727399    0.039046
 C         15.125243   -0.423283    0.044256
 C         13.741824   -0.244410    0.044335
 C         12.886358    0.973167    0.049767
 C         13.384717    2.277441    0.060649
 C         14.776108    2.586830    0.062926
 N         15.901859    2.893095    0.065023
 C         12.580195    3.453994    0.072841
 N         11.971247    4.449548    0.083686
 H         10.575352    2.418281    0.040301
 H         12.735069   -3.521583    0.030863
 H         15.823155    0.401866    0.047820
 C         -1.943069   -2.994928    1.380433
 C         -2.264885   -4.353474    1.473883
 C         -2.334264   -4.993602    2.714432
 C         -2.088641   -4.304435    3.905817
 C         -1.775871   -2.940399    3.810471
 C         -1.704467   -2.299584    2.577207
 H         -2.458267   -4.932140    0.577929
 H         -2.583003   -6.051845    2.748628
 H         -1.585703   -2.369198    4.716327
 H         -1.463262   -1.241189    2.549987
 C         -1.753366   -3.114043   -1.212603
 C         -0.773833   -4.121306   -1.243735
 C         -0.546837   -4.869861   -2.395763
 C         -1.283991   -4.647187   -3.568008
 C         -2.250619   -3.637366   -3.539570
 C         -2.480653   -2.882661   -2.386642
 H         -0.185901   -4.334645   -0.356577
 H          0.218736   -5.642355   -2.382936
 H         -2.835288   -3.429197   -4.432575
 H         -3.230260   -2.098354   -2.416652
 C          1.753451    3.114157    1.213328
 C          0.773802    4.121304    1.244549
 C          0.546850    4.869859    2.396586
 C          1.284164    4.647297    3.568752
 C          2.250905    3.637587    3.540228
 C          2.480895    2.882883    2.387291
 H          0.185740    4.334550    0.357455
 H         -0.218816    5.642263    2.383829
 H          2.835699    3.429506    4.433172
 H          3.230596    2.098663    2.417233
 C          1.943047    2.995016   -1.379716
 C          2.264712    4.353597   -1.473183
 C          2.334035    4.993713   -2.713741
 C          2.088506    4.304501   -3.905119
 C          1.775887    2.940431   -3.809757
 C          1.704538    2.299628   -2.576484
 H          2.458016    4.932299   -0.577236
 H          2.582656    6.051984   -2.747950
 H          1.585796    2.369196   -4.715607
 H          1.463451    1.241206   -2.549251
 C         -2.136335   -5.001063    5.244745
 H         -1.125866   -5.227030    5.609939
 H         -2.619793   -4.375957    6.003633
 C         -1.052435   -5.482508   -4.804509
 H         -1.437545   -4.985771   -5.700494
 H          0.013491   -5.683936   -4.957196
 C          1.052650    5.482619    4.805261
 H         -0.013284    5.683917    4.958070
 H          1.437929    4.985951    5.701212
 C          2.136138    5.001114   -5.244057
 H          2.619663    4.376045   -6.002933
 H          1.125649    5.226976   -5.609260
 H         -2.682721   -5.947459    5.184328
 H         -1.556136   -6.454935   -4.725695
 H          1.556219    6.455108    4.726363
 H          2.682430    5.947565   -5.183651
 S          8.116214   -0.452022    0.038533
 S         -8.116170    0.452116   -0.038359
 C          8.083340    2.212277    0.036113
 C         -8.083289   -2.212182   -0.035977
 H          8.436399    3.236614    0.029457
 H         -8.436347   -3.236520   -0.029409
 C          8.983880    1.118495    0.038787
 C         -8.983834   -1.118404   -0.038777
 N         -5.524361   -2.431767   -0.050113
 N          5.524415    2.431866    0.050592
 C         -5.320576   -3.874470   -0.048812
 H         -4.463252   -4.122067   -0.676548
 H         -5.153847   -4.253612    0.963645
 H         -6.206679   -4.351012   -0.472724
 C          5.320635    3.874569    0.049312
 H          5.153823    4.253716   -0.963129
 H          4.463365    4.122165    0.677122
 H          6.206776    4.351105    0.473153
Cl        -17.375388    1.916579   -0.040345
Cl        -15.431198    4.472286   -0.028628
Cl         15.430858   -4.472541    0.027762
Cl         17.375225   -1.916966    0.038783
       140
S1: Total Energy = -6987.38449996
 C         -6.762633   -1.798835   -0.026612
 C         -6.595946   -0.386628   -0.026963
 C         -5.225694   -0.153792   -0.025419
 C         -4.568434   -1.428165   -0.019227
 C         -3.170625   -1.314573   -0.019186
 C         -2.781008    0.034785   -0.038126
 C         -1.370389    0.174691   -0.028981
 C         -0.813670   -1.144703    0.028371
 C          0.549397   -1.325392    0.059088
 S         -4.100339    1.188521   -0.044227
 C         -1.931987   -2.219229    0.046521
 H          0.993524   -2.314345    0.103612
 C          6.762654    1.798897    0.026539
 C          6.595969    0.386690    0.026898
 C          5.225717    0.153851    0.025296
 C          4.568456    1.428223    0.019067
 C          3.170648    1.314629    0.018978
 C          2.781031   -0.034728    0.037919
 C          1.370412   -0.174633    0.028747
 C          0.813693    1.144761   -0.028614
 C         -0.549375    1.325450   -0.059328
 S          4.100362   -1.188463    0.044074
 C          1.932013    2.219286   -0.046752
 H         -0.993501    2.314403   -0.103848
 C        -10.385817   -1.348651   -0.038906
 C        -11.508873   -0.533279   -0.047086
 C        -11.503139    0.946325   -0.037187
 O        -10.531948    1.696739   -0.029817
 C        -12.919555    1.377703   -0.036243
 C        -13.413677    2.668582   -0.025713
 C        -14.800821    2.847736   -0.026443
 C        -15.647589    1.725386   -0.038172
 C        -15.134229    0.422118   -0.049369
 C        -13.748871    0.241445   -0.048220
 C        -12.899677   -0.973501   -0.059277
 C        -13.394576   -2.278974   -0.082294
 C        -14.785107   -2.591286   -0.088115
 N        -15.910732   -2.899016   -0.093256
 C        -12.587152   -3.452847   -0.106357
 N        -11.974088   -4.446120   -0.127408
 H        -10.584463   -2.414109   -0.038222
 H        -12.742298    3.520349   -0.017020
 H        -15.831988   -0.403126   -0.058082
 C         10.385837    1.348702    0.038940
 C         11.508864    0.533294    0.047171
 C         11.503059   -0.946309    0.037277
 O         10.531829   -1.696672    0.029832
 C         12.919454   -1.377755    0.036480
 C         13.413514   -2.668659    0.026047
 C         14.800650   -2.847879    0.026913
 C         15.647471   -1.725570    0.038672
 C         15.134173   -0.422276    0.049763
 C         13.748824   -0.241536    0.048478
 C         12.899688    0.973453    0.059413
 C         13.394654    2.278903    0.082370
 C         14.785201    2.591141    0.088280
 N         15.910840    2.898822    0.093496
 C         12.587294    3.452823    0.106285
 N         11.974296    4.446139    0.127208
 H         10.584505    2.414154    0.038233
 H         12.742094   -3.520394    0.017327
 H         15.831971    0.402934    0.058504
 C         -1.947092   -2.982501    1.396155
 C         -2.268490   -4.340624    1.497057
 C         -2.337700   -4.973681    2.741193
 C         -2.092367   -4.277691    3.928746
 C         -1.780375   -2.913977    3.825869
 C         -1.709479   -2.280055    2.589124
 H         -2.461734   -4.924301    0.604351
 H         -2.586097   -6.031774    2.781400
 H         -1.590781   -2.337593    4.728536
 H         -1.469565   -1.221527    2.556022
 C         -1.759180   -3.114858   -1.197012
 C         -0.782248   -4.124695   -1.224733
 C         -0.558180   -4.878365   -2.374005
 C         -1.295882   -4.658476   -3.546439
 C         -2.260003   -3.646085   -3.521286
 C         -2.487000   -2.886107   -2.371305
 H         -0.194103   -4.335921   -0.337203
 H          0.205472   -5.652700   -2.358878
 H         -2.844961   -3.440134   -4.414599
 H         -3.234644   -2.099974   -2.403558
 C          1.759197    3.114921    1.196775
 C          0.782363    4.124856    1.224430
 C          0.558286    4.878542    2.373689
 C          1.295881    4.658575    3.546175
 C          2.259906    3.646091    3.521087
 C          2.486914    2.886097    2.371118
 H          0.194307    4.336146    0.336856
 H         -0.205288    5.652953    2.358510
 H          2.844781    3.440079    4.414440
 H          3.234481    2.099894    2.403420
 C          1.947149    2.982554   -1.396387
 C          2.268659    4.340650   -1.497296
 C          2.337897    4.973701   -2.741433
 C          2.092481    4.277731   -3.928981
 C          1.780377    2.914043   -3.826097
 C          1.709454    2.280128   -2.589350
 H          2.461970    4.924311   -0.604593
 H          2.586383    6.031772   -2.781645
 H          1.590716    2.337675   -4.728760
 H          1.469452    1.221619   -2.556242
 C         -2.139988   -4.966722    5.271532
 H         -1.129335   -5.186784    5.639796
 H         -2.627039   -4.338945    6.025910
 C         -1.067613   -5.499366   -4.779743
 H         -1.449084   -5.003718   -5.677883
 H         -0.002667   -5.707217   -4.930527
 C          1.067608    5.499483    4.779466
 H          0.002673    5.707454    4.930165
 H          1.448950    5.003786    5.677634
 C          2.140134    4.966757   -5.271768
 H          2.627120    4.338941   -6.026155
 H          1.129492    5.186901   -5.640014
 H         -2.682829   -5.915408    5.215625
 H         -1.576822   -6.468681   -4.698002
 H          1.576933    6.468741    4.697772
 H          2.683053    5.915399   -5.215871
 S          8.121107   -0.455184    0.033432
 S         -8.121084    0.455249   -0.033389
 C          8.094595    2.203987    0.025938
 C         -8.094575   -2.203922   -0.025954
 H          8.447363    3.228580    0.018922
 H         -8.447343   -3.228515   -0.018951
 C          8.989622    1.112816    0.032315
 C         -8.989603   -1.112750   -0.032296
 N         -5.530062   -2.425018   -0.036356
 N          5.530081    2.425078    0.036221
 C         -5.326458   -3.867600   -0.028075
 H         -4.469953   -4.118842   -0.655557
 H         -5.158543   -4.241893    0.986043
 H         -6.213042   -4.346418   -0.448417
 C          5.326473    3.867659    0.027912
 H          5.158593    4.241937   -0.986217
 H          4.469945    4.118909    0.655360
 H          6.213040    4.346487    0.448280
Cl        -17.382860    1.916407   -0.039269
Cl        -15.438559    4.471085   -0.012522
Cl         15.438310   -4.471260    0.013128
Cl         17.382732   -1.916675    0.039943
