       140
S0: Total Energy = -5586.91095275
 C         -8.008123    1.646074    0.156365
 C         -7.153897    2.760052    0.256900
 C         -5.809371    2.408644    0.279754
 C         -5.577940    1.015484    0.203914
 C         -4.203111    0.695815    0.207579
 C         -3.424276    1.830596    0.278930
 C         -0.578541   -0.446571    0.049840
 C         -0.332965   -1.870446    0.026643
 C          0.937234   -2.380867   -0.119588
 S         -7.071479    0.130163    0.099836
 S         -4.311649    3.330840    0.360801
 C         -3.317126   -0.557522    0.126353
 H         -7.535903    3.773743    0.303457
 H          1.111554   -3.448433   -0.155628
 C          8.007069   -1.645691   -0.169430
 C          7.151901   -2.759179   -0.267598
 C          5.807285   -2.407615   -0.277420
 C          5.576636   -1.014699   -0.194623
 C          4.201872   -0.694794   -0.187939
 C          3.422421   -1.829238   -0.257948
 C          2.024685   -1.497018   -0.183063
 C          1.891727   -0.102690   -0.111789
 C          0.577935    0.448068   -0.014692
 S          7.071033   -0.130075   -0.096967
 S          4.308886   -3.329334   -0.351165
 C          3.316528    0.558484   -0.098874
 H          7.533476   -3.772543   -0.323707
 C         -9.409485    1.837262    0.110595
 C        -10.498756    0.988962    0.019374
 C        -10.443103   -0.487283   -0.040394
 O         -9.448236   -1.205135   -0.035392
 C        -11.842664   -0.964608   -0.105918
 C        -12.286384   -2.279075   -0.170540
 C        -13.657209   -2.482844   -0.221943
 C        -14.541137   -1.395608   -0.207675
 C        -14.095460   -0.081389   -0.143853
 C        -12.713677    0.138270   -0.092230
 C        -11.906269    1.384850   -0.022160
 C        -12.445886    2.662324   -0.010938
 C        -13.848772    2.924967   -0.055932
 N        -14.982877    3.191366   -0.090597
 C        -11.679386    3.865973    0.040633
 N        -11.102045    4.877988    0.080385
 H         -9.643167    2.894850    0.160760
 H        -11.595753   -3.115413   -0.180752
 F        -14.167868   -3.719086   -0.285651
 F        -15.855513   -1.651262   -0.257827
 H        -14.834585    0.707711   -0.136482
 C          9.408937   -1.836791   -0.143713
 C         10.499164   -0.989094   -0.058269
 C         10.443444    0.485323    0.036027
 O          9.448386    1.202724    0.053477
 C         11.843098    0.961383    0.108000
 C         12.286477    2.273792    0.207195
 C         13.657360    2.476748    0.260185
 C         14.541637    1.390703    0.213623
 C         14.096298    0.078567    0.114298
 C         12.714458   -0.140284    0.060717
 C         11.907309   -1.384631   -0.043981
 C         12.448117   -2.659858   -0.111940
 C         13.851525   -2.922251   -0.086305
 N         14.986087   -3.188406   -0.068834
 C         11.682841   -3.861008   -0.214613
 N         11.106645   -4.870952   -0.298844
 H          9.642109   -2.893815   -0.206171
 H         11.595480    3.109145    0.242475
 F         14.167689    3.710998    0.356680
 F         15.856046    1.645384    0.267837
 H         14.835785   -0.709613    0.083384
 C         -3.645175   -1.379675    1.393308
 C         -4.834553   -2.116567    1.493061
 C         -5.190731   -2.764204    2.677621
 C         -4.382190   -2.695250    3.816834
 C         -3.205122   -1.941139    3.723974
 C         -2.844793   -1.297321    2.541749
 H         -5.503014   -2.195648    0.642666
 H         -6.121745   -3.325457    2.711874
 H         -2.556003   -1.852194    4.592599
 H         -1.924872   -0.723000    2.518342
 C         -3.572108   -1.239561   -1.248282
 C         -3.864570   -2.595385   -1.420516
 C         -4.086333   -3.132412   -2.691420
 C         -4.020522   -2.341489   -3.841698
 C         -3.715739   -0.983595   -3.671188
 C         -3.501316   -0.445875   -2.405554
 H         -3.916893   -3.253716   -0.563480
 H         -4.312332   -4.192651   -2.782718
 H         -3.646825   -0.334945   -4.541863
 H         -3.268312    0.611651   -2.320256
 C          3.577534    1.235998    1.276952
 C          3.870650    2.591255    1.452456
 C          4.097979    3.124063    2.724150
 C          4.037254    2.329328    3.872069
 C          3.731792    0.971995    3.698363
 C          3.511866    0.438482    2.431893
 H          3.919136    3.252485    0.597448
 H          4.324292    4.184012    2.817975
 H          3.666706    0.320437    4.567162
 H          3.278538   -0.618762    2.344141
 C          3.639234    1.384627   -1.364594
 C          4.827735    2.122583   -1.466828
 C          5.178838    2.773998   -2.650848
 C          4.365900    2.707924   -3.787084
 C          3.189743    1.952671   -3.691892
 C          2.834491    1.305063   -2.510208
 H          5.499521    2.199500   -0.618860
 H          6.109340    3.335979   -2.687070
 H          2.537328    1.865802   -4.558253
 H          1.915151    0.729888   -2.485025
 C         -4.752176   -3.418524    5.090364
 H         -4.273341   -4.405691    5.141971
 H         -4.432516   -2.858793    5.976050
 C         -4.286245   -2.916462   -5.212836
 H         -3.586323   -2.519354   -5.956721
 H         -4.199307   -4.007726   -5.212844
 C          4.308891    2.899766    5.243942
 H          4.222335    3.991054    5.247836
 H          3.611912    2.500496    5.989435
 C          4.730390    3.435219   -5.059906
 H          4.409059    2.877110   -5.946017
 H          4.249374    4.421527   -5.107471
 H         -5.833197   -3.577867    5.160236
 H         -5.298307   -2.667768   -5.558740
 H          5.322288    2.649607    5.584843
 H          5.810856    3.596926   -5.132791
 C          0.332361    1.871919    0.010308
 C         -1.892586    0.104059    0.143479
 C         -2.026076    1.498467    0.211949
 C         -0.938370    2.382270    0.152419
 H         -1.112756    3.449840    0.188215
 O         -1.416306   -2.661150    0.176270
 O          1.416268    2.662888   -0.133818
 C         -1.233569   -4.069405    0.291581
 H         -0.846087   -4.497281   -0.640120
 H         -0.557711   -4.310302    1.119929
 H         -2.221676   -4.479811    0.498159
 C          1.233827    4.071184   -0.249175
 H          0.561658    4.312469   -1.080400
 H          0.842134    4.498485    0.681030
 H          2.222758    4.481910   -0.451100
       140
T1: Total Energy = -5586.87008294
 C         -7.986807    1.660139    0.138309
 C         -7.127817    2.780020    0.242044
 C         -5.788475    2.429224    0.276510
 C         -5.550533    1.031082    0.208075
 C         -4.188348    0.716262    0.227548
 C         -3.394323    1.861834    0.303943
 C         -0.588311   -0.437698    0.112168
 C         -0.344483   -1.873324    0.114826
 C          0.918650   -2.395408   -0.042593
 S         -7.052214    0.143221    0.095005
 S         -4.294377    3.361956    0.371457
 C         -3.310355   -0.541156    0.161902
 H         -7.512140    3.792699    0.281743
 H          1.083150   -3.464722   -0.065065
 C          7.980022   -1.661230   -0.183734
 C          7.115881   -2.778440   -0.271960
 C          5.776943   -2.424622   -0.266570
 C          5.543932   -1.026437   -0.182143
 C          4.182286   -0.708811   -0.162927
 C          3.384554   -1.852687   -0.224001
 C          2.013509   -1.524069   -0.126987
 C          1.876662   -0.100843   -0.060735
 C          0.586197    0.449918    0.036713
 S          7.050425   -0.142891   -0.102185
 S          4.279009   -3.354022   -0.326539
 C          3.307660    0.549234   -0.064463
 H          7.496586   -3.791530   -0.330835
 C         -9.386266    1.845925    0.081929
 C        -10.475641    0.986715   -0.017679
 C        -10.409766   -0.490150   -0.080233
 O         -9.409220   -1.201250   -0.064865
 C        -11.804203   -0.979036   -0.165222
 C        -12.239141   -2.294687   -0.241233
 C        -13.609262   -2.506998   -0.311853
 C        -14.496854   -1.425191   -0.304910
 C        -14.058782   -0.107104   -0.229265
 C        -12.680112    0.120690   -0.158043
 C        -11.877604    1.370021   -0.071019
 C        -12.428209    2.650954   -0.053645
 C        -13.830391    2.903445   -0.110248
 N        -14.967169    3.161410   -0.153938
 C        -11.673629    3.858649    0.017673
 N        -11.107579    4.877443    0.073677
 H         -9.627160    2.901557    0.128565
 H        -11.543744   -3.127197   -0.245964
 F        -14.111122   -3.748179   -0.387679
 F        -15.810616   -1.685338   -0.374186
 H        -14.802355    0.677872   -0.228855
 C          9.380142   -1.850068   -0.171277
 C         10.473773   -0.993896   -0.094757
 C         10.412543    0.481544   -0.001566
 O          9.413361    1.194316    0.022809
 C         11.809667    0.966422    0.058792
 C         12.249036    2.279396    0.153274
 C         13.620910    2.488037    0.195080
 C         14.505833    1.405321    0.142262
 C         14.063351    0.089938    0.047553
 C         12.682893   -0.134164    0.005222
 C         11.875975   -1.379930   -0.091445
 C         12.423765   -2.660253   -0.162287
 C         13.826494   -2.915568   -0.148702
 N         14.963609   -3.175640   -0.140935
 C         11.665739   -3.864288   -0.255491
 N         11.096995   -4.880219   -0.332373
 H          9.617338   -2.905563   -0.235948
 H         11.555664    3.112633    0.193558
 F         14.126992    3.726463    0.286563
 F         15.821436    1.661792    0.185483
 H         14.805132   -0.695902    0.011376
 C         -3.661595   -1.353495    1.427483
 C         -4.835596   -2.117684    1.497924
 C         -5.214212   -2.755561    2.680520
 C         -4.445016   -2.650004    3.844368
 C         -3.284923   -1.867156    3.779449
 C         -2.903066   -1.230393    2.600346
 H         -5.475051   -2.222743    0.628424
 H         -6.132516   -3.337936    2.693763
 H         -2.668683   -1.747749    4.667928
 H         -1.999587   -0.629326    2.600023
 C         -3.539968   -1.223514   -1.215262
 C         -3.794368   -2.587014   -1.395237
 C         -3.986433   -3.124077   -2.669964
 C         -3.927817   -2.326518   -3.817054
 C         -3.661558   -0.961918   -3.638862
 C         -3.476752   -0.423051   -2.368975
 H         -3.844801   -3.249242   -0.541439
 H         -4.185274   -4.188988   -2.767900
 H         -3.601045   -0.308508   -4.506327
 H         -3.275394    0.640474   -2.279268
 C          3.576926    1.217072    1.312932
 C          3.862297    2.573680    1.497233
 C          4.093863    3.096922    2.771095
 C          4.045689    2.291558    3.913234
 C          3.748550    0.933907    3.730961
 C          3.524435    0.408745    2.461621
 H          3.905417    3.241333    0.647183
 H          4.315463    4.156997    2.872447
 H          3.694744    0.275004    4.594714
 H          3.300464   -0.649947    2.368658
 C          3.624206    1.373996   -1.331389
 C          4.803065    2.127607   -1.432066
 C          5.148191    2.777583   -2.618136
 C          4.339174    2.695415   -3.756647
 C          3.174238    1.923020   -3.662725
 C          2.825775    1.274135   -2.479743
 H          5.473065    2.214601   -0.583901
 H          6.071461    3.351014   -2.654722
 H          2.527299    1.821123   -4.531344
 H          1.917340    0.681184   -2.457885
 C         -4.839835   -3.363358    5.115729
 H         -4.359197   -4.348526    5.185053
 H         -4.540636   -2.795056    6.002889
 C         -4.165611   -2.903539   -5.191992
 H         -3.504761   -2.447918   -5.937612
 H         -4.001396   -3.985747   -5.206185
 C          4.325965    2.852891    5.286664
 H          4.182263    3.937793    5.312999
 H          3.674133    2.403451    6.043882
 C          4.698390    3.421980   -5.031054
 H          4.363956    2.868648   -5.915077
 H          4.225640    4.412566   -5.071144
 H         -5.921506   -3.525769    5.163688
 H         -5.197106   -2.724286   -5.522996
 H          5.361338    2.652030    5.592188
 H          5.779440    3.574634   -5.113135
 C          0.342574    1.885717    0.050481
 C         -1.880567    0.111414    0.188784
 C         -2.020541    1.534569    0.244716
 C         -0.923990    2.405980    0.187888
 H         -1.089205    3.474985    0.215810
 O         -1.424425   -2.644475    0.303121
 O          1.425976    2.660345   -0.101491
 C         -1.262578   -4.056882    0.451596
 H         -0.914987   -4.511527   -0.481963
 H         -0.563156   -4.282453    1.263152
 H         -2.250976   -4.438949    0.703874
 C          1.265492    4.075692   -0.222382
 H          0.592837    4.319044   -1.051234
 H          0.886348    4.507812    0.709571
 H          2.260305    4.466249   -0.431975
       140
S1: Total Energy = -5586.85681750
 C         -7.994434    1.661804    0.157412
 C         -7.140852    2.776214    0.256973
 C         -5.793429    2.423268    0.272906
 C         -5.560536    1.032323    0.193373
 C         -4.187812    0.716389    0.195737
 C         -3.401717    1.855775    0.270778
 C         -0.586266   -0.442669    0.043866
 C         -0.344770   -1.874595    0.028229
 C          0.924961   -2.395794   -0.117447
 S         -7.060545    0.146208    0.093153
 S         -4.299463    3.353791    0.355894
 C         -3.311614   -0.540324    0.109591
 H         -7.522794    3.789299    0.308039
 H          1.088747   -3.464749   -0.152382
 C          7.993633   -1.661688   -0.163940
 C          7.139438   -2.775774   -0.261735
 C          5.791994   -2.422650   -0.270173
 C          5.559657   -1.031833   -0.186843
 C          4.186964   -0.715684   -0.183123
 C          3.400444   -1.854839   -0.256999
 C          2.016777   -1.525058   -0.178590
 C          1.881417   -0.108456   -0.109756
 C          0.585830    0.443811   -0.021418
 S          7.060233   -0.146197   -0.090808
 S          4.297573   -3.352836   -0.348499
 C          3.311203    0.541033   -0.092330
 H          7.521026   -3.788721   -0.317884
 C         -9.402113    1.846931    0.119369
 C        -10.487646    0.991612    0.029641
 C        -10.421243   -0.486760   -0.042760
 O         -9.419212   -1.195604   -0.045239
 C        -11.815406   -0.975211   -0.111502
 C        -12.250119   -2.290746   -0.189202
 C        -13.620888   -2.504644   -0.242467
 C        -14.509512   -1.423227   -0.217139
 C        -14.073061   -0.105343   -0.139872
 C        -12.692473    0.125620   -0.086063
 C        -11.895676    1.372994   -0.002964
 C        -12.445548    2.655496    0.029295
 C        -13.847672    2.908597   -0.007996
 N        -14.985585    3.165654   -0.035804
 C        -11.689639    3.861575    0.098454
 N        -11.120809    4.879425    0.153761
 H         -9.640888    2.902823    0.174598
 H        -11.553759   -3.122271   -0.208144
 F        -14.122677   -3.746136   -0.318740
 F        -15.823670   -1.685536   -0.270019
 H        -14.817482    0.678699   -0.124775
 C          9.401562   -1.846876   -0.136692
 C         10.487688   -0.991922   -0.050870
 C         10.421551    0.485611    0.037187
 O          9.419508    1.194292    0.051898
 C         11.815961    0.973394    0.105597
 C         12.250865    2.287956    0.197333
 C         13.621817    2.501393    0.247671
 C         14.510419    1.420479    0.205617
 C         14.073790    0.103582    0.113899
 C         12.693009   -0.126926    0.063016
 C         11.896001   -1.373225   -0.033067
 C         12.446116   -2.654749   -0.090619
 C         13.848460   -2.907869   -0.063494
 N         14.986577   -3.164826   -0.044453
 C         11.690436   -3.859591   -0.180659
 N         11.121884   -4.876434   -0.254338
 H          9.639947   -2.902497   -0.198232
 H         11.554488    3.119076    0.229098
 F         14.123797    3.741934    0.337123
 F         15.824759    1.682272    0.256576
 H         14.818251   -0.680084    0.086244
 C         -3.648686   -1.369117    1.368000
 C         -4.825778   -2.128343    1.443659
 C         -5.191056   -2.782186    2.621510
 C         -4.404629   -2.698867    3.775764
 C         -3.241301   -1.921337    3.706256
 C         -2.872799   -1.268338    2.531768
 H         -5.478569   -2.216220    0.582227
 H         -6.112440   -3.359493    2.639078
 H         -2.611959   -1.818638    4.587579
 H         -1.966881   -0.670996    2.528851
 C         -3.553350   -1.205073   -1.274085
 C         -3.822735   -2.564038   -1.467149
 C         -4.028333   -3.085177   -2.746123
 C         -3.968691   -2.275507   -3.884904
 C         -3.687587   -0.915468   -3.693703
 C         -3.489715   -0.392198   -2.419516
 H         -3.875022   -3.234220   -0.619669
 H         -4.239105   -4.146718   -2.854500
 H         -3.626482   -0.253374   -4.554470
 H         -3.278870    0.668402   -2.319092
 C          3.556980    1.203257    1.291884
 C          3.827685    2.561721    1.486595
 C          4.037103    3.080501    2.765905
 C          3.980120    2.268883    3.903431
 C          3.697718    0.909342    3.710621
 C          3.496057    0.388416    2.436067
 H          3.878053    3.233366    0.640163
 H          4.248777    4.141730    2.875558
 H          3.638599    0.245773    4.570394
 H          3.284362   -0.671890    2.334383
 C          3.644807    1.372003   -1.350225
 C          4.821703    2.131327   -1.427924
 C          5.183658    2.787200   -2.605679
 C          4.393981    2.705895   -3.757847
 C          3.230866    1.928215   -3.686405
 C          2.865682    1.273190   -2.512015
 H          5.476995    2.217643   -0.568237
 H          6.104997    3.364526   -2.624860
 H          2.599062    1.826987   -4.566136
 H          1.959834    0.675758   -2.507636
 C         -4.785559   -3.429389    5.041502
 H         -4.311994   -4.419337    5.087398
 H         -4.467967   -2.877866    5.932815
 C         -4.221231   -2.834828   -5.264325
 H         -3.558425   -2.379916   -6.008623
 H         -4.071576   -3.918883   -5.290744
 C          4.236731    2.825659    5.283128
 H          4.088207    3.909814    5.311722
 H          3.575365    2.370163    6.028351
 C          4.771336    3.438568   -5.023410
 H          4.452581    2.887814   -5.914786
 H          4.296395    4.427960   -5.067022
 H         -5.867642   -3.583953    5.103639
 H         -5.252002   -2.638251   -5.587625
 H          5.268125    2.627531    5.603483
 H          5.853086    3.594585   -5.087602
 C          0.344313    1.875739   -0.004481
 C         -1.882023    0.109476    0.129940
 C         -2.017744    1.526104    0.197157
 C         -0.925766    2.396836    0.138740
 H         -1.089650    3.465781    0.173681
 O         -1.424511   -2.650708    0.183696
 O          1.424392    2.652088   -0.156476
 C         -1.265463   -4.067605    0.301678
 H         -0.894703   -4.498240   -0.634052
 H         -0.587176   -4.312323    1.125174
 H         -2.259721   -4.455444    0.518630
 C          1.265462    4.069093   -0.273406
 H          0.589504    4.314606   -1.098574
 H          0.891989    4.498676    0.661728
 H          2.260247    4.457357   -0.487089
