        93
S0: Total Energy = -3367.78859419
 C         -7.248318   -0.325967   -0.178217
 C         -7.694516   -1.618581   -0.439223
 C         -6.790725   -2.674871   -0.530573
 C         -5.414902   -2.427679   -0.375626
 C         -4.947029   -1.105688   -0.130206
 C         -5.885156   -0.037437   -0.008753
 C         -4.483242   -3.506282   -0.455446
 C         -3.139175   -3.279152   -0.310072
 C         -2.636749   -1.965179   -0.099014
 C         -3.541420   -0.875395   -0.004029
 C         -3.049584    0.438649    0.269467
 C         -3.986461    1.501546    0.481820
 C         -5.391283    1.300802    0.319791
 C         -7.295837   -4.044141   -0.787326
 N         -6.337795   -5.069079   -0.856670
 C         -4.960456   -4.889786   -0.702238
 C         -3.507723    2.784029    0.867527
 C         -4.402528    3.850915    1.063293
 C         -5.766220    3.651779    0.867088
 C         -6.248576    2.397043    0.504155
 C         -1.649640    0.685831    0.364313
 C         -1.227367    1.950167    0.865025
 C         -2.114158    2.970400    1.096730
 C         -1.594540    4.272813    1.587153
 N         -2.532756    5.302755    1.735060
 C         -3.907194    5.178625    1.491423
 O         -8.488870   -4.282695   -0.932704
 O         -4.200859   -5.848964   -0.773726
 O         -4.646730    6.143546    1.647081
 O         -0.408616    4.449216    1.840946
 C         -1.246327   -1.682036   -0.018920
 C          3.139178   -3.279151    0.310073
 C          4.483246   -3.506279    0.455446
 C          5.414904   -2.427675    0.375622
 C          4.947031   -1.105686    0.130201
 C          3.541422   -0.875393    0.004029
 C          2.636751   -1.965178    0.099017
 C          6.790728   -2.674868    0.530561
 C          7.694520   -1.618579    0.439198
 C          7.248321   -0.325965    0.178195
 C          5.885157   -0.037435    0.008742
 C          4.960461   -4.889783    0.702235
 N          6.337796   -5.069067    0.856714
 C          7.295842   -4.044137    0.787314
 C          5.391283    1.300805   -0.319798
 C          3.986460    1.501548   -0.481823
 C          3.049584    0.438651   -0.269467
 C          3.507720    2.784031   -0.867526
 C          2.114155    2.970402   -1.096725
 C          1.227365    1.950168   -0.865019
 C          1.649640    0.685832   -0.364310
 C          6.248574    2.397046   -0.504163
 C          5.766217    3.651783   -0.867092
 C          4.402524    3.850919   -1.063293
 C          3.907189    5.178629   -1.491421
 N          2.532750    5.302757   -1.735057
 C          1.594535    4.272816   -1.587145
 O          0.408610    4.449220   -1.840932
 O          4.646723    6.143551   -1.647075
 O          4.200869   -5.848967    0.773690
 O          8.488878   -4.282695    0.932659
 C          1.246328   -1.682035    0.018924
 C          0.728040   -0.382309   -0.064582
 C         -0.728039   -0.382310    0.064587
 H         -7.987167    0.462484   -0.100709
 H         -8.751843   -1.823247   -0.565187
 H         -2.464117   -4.126042   -0.383062
 H         -6.444743    4.484851    1.013929
 H         -7.317789    2.279873    0.375392
 H         -0.187244    2.127991    1.101197
 H          2.464121   -4.126041    0.383061
 H          8.751848   -1.823246    0.565153
 H          7.987169    0.462486    0.100679
 H          0.187241    2.127992   -1.101188
 H          7.317787    2.279877   -0.375401
 H          6.444739    4.484855   -1.013933
 S          0.000001   -2.914225    0.000003
 C          6.791360   -6.442968    1.106580
 H          6.322953   -6.826015    2.015940
 H          6.504943   -7.084866    0.270278
 H          7.872636   -6.421414    1.215552
 C          2.067646    6.622289   -2.179542
 H          2.309208    7.372169   -1.422994
 H          2.565663    6.895334   -3.112674
 H          0.992241    6.563448   -2.326357
 C         -2.067654    6.622286    2.179548
 H         -2.309246    7.372172    1.423016
 H         -2.565646    6.895315    3.112698
 H         -0.992244    6.563455    2.326333
 C         -6.791359   -6.442984   -1.106515
 H         -6.323310   -6.825906   -2.016116
 H         -6.504538   -7.084943   -0.270402
 H         -7.872680   -6.421496   -1.215049
        93
T1: Total Energy = -3367.73118287
 C          7.264718    0.284284   -0.174365
 C          7.719876    1.574528   -0.432438
 C          6.823071    2.636719   -0.522489
 C          5.445501    2.398133   -0.369107
 C          4.968382    1.078749   -0.126321
 C          5.899752    0.004354   -0.006497
 C          4.521210    3.482866   -0.448155
 C          3.175559    3.264250   -0.304781
 C          2.664438    1.953303   -0.096269
 C          3.561473    0.857432   -0.001830
 C          3.060037   -0.455082    0.268058
 C          3.990518   -1.524119    0.478186
 C          5.396980   -1.331506    0.318329
 C          7.337287    4.003220   -0.776397
 N          6.386049    5.034562   -0.844563
 C          5.007547    4.863823   -0.691933
 C          3.503967   -2.805267    0.859559
 C          4.392428   -3.878397    1.052504
 C          5.757193   -3.686421    0.858800
 C          6.247389   -2.433087    0.500697
 C          1.659124   -0.695125    0.362549
 C          1.228724   -1.958940    0.854557
 C          2.109344   -2.985307    1.084379
 C          1.581000   -4.286955    1.567151
 N          2.512998   -5.323087    1.712063
 C          3.888785   -5.205150    1.473718
 O          8.531930    4.234215   -0.920367
 O          4.254030    5.827857   -0.762040
 O          4.622920   -6.174517    1.627703
 O          0.393760   -4.457433    1.818806
 C          1.272267    1.679368   -0.016651
 C         -3.099842    3.285795    0.292583
 C         -4.469334    3.523082    0.444243
 C         -5.398470    2.455981    0.379293
 C         -4.937239    1.126253    0.144599
 C         -3.538331    0.887395    0.009406
 C         -2.615253    1.994806    0.088155
 C         -6.778803    2.711872    0.539717
 C         -7.700890    1.647998    0.466172
 C         -7.270582    0.365219    0.221576
 C         -5.879749    0.060083    0.038910
 C         -4.932856    4.903652    0.680004
 N         -6.307912    5.096026    0.838828
 C         -7.272674    4.078342    0.783827
 C         -5.409611   -1.252397   -0.278014
 C         -4.009468   -1.470464   -0.451040
 C         -3.064204   -0.418413   -0.251105
 C         -3.546838   -2.757004   -0.855754
 C         -2.171666   -2.953920   -1.105787
 C         -1.250384   -1.921088   -0.878576
 C         -1.645106   -0.686876   -0.370404
 C         -6.297749   -2.367808   -0.457166
 C         -5.834910   -3.609296   -0.825574
 C         -4.460071   -3.820206   -1.046380
 C         -3.986200   -5.141556   -1.487376
 N         -2.615396   -5.276999   -1.737082
 C         -1.668665   -4.255129   -1.588436
 O         -0.480282   -4.440358   -1.844785
 O         -4.741567   -6.099373   -1.646141
 O         -4.161579    5.859442    0.740139
 O         -8.468429    4.324294    0.931664
 C         -1.215403    1.687636   -0.003544
 C         -0.708382    0.393069   -0.065779
 C          0.741698    0.380244    0.067433
 H          7.998322   -0.509174   -0.098151
 H          8.778633    1.772354   -0.557188
 H          2.506362    4.115892   -0.376746
 H          6.430726   -4.523938    1.003381
 H          7.317449   -2.321816    0.373942
 H          0.186423   -2.133192    1.082018
 H         -2.429811    4.136557    0.359587
 H         -8.753839    1.867930    0.600226
 H         -8.007975   -0.425385    0.164364
 H         -0.215495   -2.126446   -1.113904
 H         -7.362131   -2.235625   -0.310322
 H         -6.515669   -4.441274   -0.966044
 S          0.032449    2.910903   -0.014966
 C         -6.749777    6.475158    1.077932
 H         -6.277162    6.862272    1.983474
 H         -6.459278    7.108043    0.236150
 H         -7.831108    6.462905    1.188500
 C         -2.162921   -6.598444   -2.187295
 H         -2.408585   -7.349044   -1.432691
 H         -2.666463   -6.864267   -3.119638
 H         -1.087486   -6.548027   -2.337361
 C          2.039381   -6.642056    2.149136
 H          2.283543   -7.390394    1.391956
 H          2.529384   -6.920146    3.085065
 H          0.963195   -6.579287    2.288408
 C          6.848734    6.405989   -1.091374
 H          6.384445    6.793476   -2.000970
 H          6.564800    7.048271   -0.254538
 H          7.930047    6.377773   -1.198430
        93
S1: Total Energy = -3367.70614123
 C          7.263453    0.327807   -0.190165
 C          7.705139    1.614366   -0.445883
 C          6.794403    2.676139   -0.532384
 C          5.418556    2.428185   -0.375462
 C          4.950438    1.103136   -0.131690
 C          5.888351    0.034534   -0.015602
 C          4.487982    3.504497   -0.452763
 C          3.134020    3.276130   -0.306282
 C          2.636037    1.973588   -0.094638
 C          3.548455    0.871633   -0.001457
 C          3.061348   -0.435313    0.268443
 C          3.998377   -1.496797    0.473627
 C          5.402101   -1.291371    0.307450
 C          7.297162    4.042522   -0.786335
 N          6.337905    5.065990   -0.853366
 C          4.961151    4.884549   -0.698679
 C          3.522416   -2.781609    0.866233
 C          4.420729   -3.846800    1.057442
 C          5.792037   -3.644397    0.851401
 C          6.269769   -2.397825    0.489293
 C          1.648039   -0.692122    0.374780
 C          1.235563   -1.944003    0.872226
 C          2.133081   -2.971039    1.101587
 C          1.618221   -4.272291    1.581900
 N          2.559854   -5.299822    1.729240
 C          3.933232   -5.171600    1.487301
 O          8.492228    4.282139   -0.931879
 O          4.197678    5.843839   -0.769269
 O          4.679150   -6.134795    1.644957
 O          0.429757   -4.453262    1.834664
 C          1.245723    1.681119   -0.009089
 C         -3.134079    3.276093    0.306326
 C         -4.488038    3.504427    0.452785
 C         -5.418598    2.428104    0.375459
 C         -4.950462    1.103074    0.131693
 C         -3.548481    0.871593    0.001478
 C         -2.636059    1.973550    0.094678
 C         -6.794442    2.676046    0.532351
 C         -7.705179    1.614281    0.445821
 C         -7.263473    0.327726    0.190107
 C         -5.888362    0.034469    0.015580
 C         -4.961240    4.884494    0.698695
 N         -6.337992    5.065925    0.853375
 C         -7.297224    4.042448    0.786297
 C         -5.402086   -1.291426   -0.307465
 C         -3.998362   -1.496820   -0.473622
 C         -3.061354   -0.435329   -0.268417
 C         -3.522378   -2.781610   -0.866224
 C         -2.133041   -2.971013   -1.101577
 C         -1.235537   -1.943978   -0.872200
 C         -1.648034   -0.692104   -0.374721
 C         -6.269733   -2.397899   -0.489314
 C         -5.791973   -3.644464   -0.851414
 C         -4.420660   -3.846819   -1.057442
 C         -3.933120   -5.171631   -1.487300
 N         -2.559753   -5.299828   -1.729258
 C         -1.618154   -4.272270   -1.581927
 O         -0.429704   -4.453167   -1.834733
 O         -4.679043   -6.134810   -1.644934
 O         -4.197766    5.843768    0.769281
 O         -8.492293    4.282016    0.931791
 C         -1.245745    1.681115    0.009150
 C         -0.723217    0.378828   -0.069101
 C          0.723218    0.378825    0.069193
 H          8.000230   -0.462860   -0.119564
 H          8.760939    1.823853   -0.575023
 H          2.463560    4.126353   -0.381457
 H          6.468441   -4.479703    0.994512
 H          7.337395   -2.276466    0.354304
 H          0.195627   -2.134337    1.098138
 H         -2.463636    4.126328    0.381510
 H         -8.760982    1.823762    0.574934
 H         -8.000243   -0.462945    0.119479
 H         -0.195592   -2.134292   -1.098085
 H         -7.337362   -2.276566   -0.354329
 H         -6.468354   -4.479788   -0.994528
 S         -0.000016    2.901830    0.000028
 C         -6.789625    6.440477    1.101778
 H         -6.321463    6.823715    2.011236
 H         -6.501364    7.081427    0.265351
 H         -7.871060    6.420427    1.209748
 C         -2.097944   -6.620930   -2.171223
 H         -2.345188   -7.369613   -1.415270
 H         -2.593709   -6.893059   -3.105927
 H         -1.021783   -6.565862   -2.314135
 C          2.098075   -6.620931    2.171196
 H          2.345361   -7.369615    1.415257
 H          2.593823   -6.893050    3.105914
 H          1.021909   -6.565890    2.314081
 C          6.789517    6.440543   -1.101769
 H          6.321500    6.823725   -2.011328
 H          6.501082    7.081525   -0.265427
 H          7.870971    6.420529   -1.209559
