       140
S0: Total Energy = -5586.93528423
 C          7.974090   -1.629563    0.060862
 C          7.130661   -2.755584    0.101530
 C          5.780908   -2.422480    0.117323
 C          5.537059   -1.028849    0.092819
 C          4.160832   -0.723359    0.091003
 C          3.390734   -1.873659    0.110624
 C          0.573367    0.443406    0.016258
 C          0.391933    1.857508    0.015777
 C         -0.867788    2.409906   -0.038033
 S          7.020754   -0.121878    0.049018
 S          4.292161   -3.362579    0.141881
 C          3.262299    0.520515    0.063859
 H          7.524253   -3.765986    0.114872
 C         -7.974066    1.629480   -0.060869
 C         -7.130648    2.755511   -0.101511
 C         -5.780889    2.422428   -0.117272
 C         -5.537024    1.028801   -0.092761
 C         -4.160795    0.723327   -0.090928
 C         -3.390706    1.873634   -0.110542
 C         -1.991055    1.544753   -0.075640
 C         -1.859114    0.153991   -0.058791
 C         -0.573329   -0.443428   -0.016161
 S         -7.020706    0.121808   -0.048978
 S         -4.292151    3.362544   -0.141800
 C         -3.262257   -0.520543   -0.063775
 H         -7.524254    3.765909   -0.114873
 C          9.377853   -1.803205    0.034234
 C         10.458508   -0.939691   -0.004980
 C         10.385801    0.536779   -0.017525
 O          9.382284    1.242554   -0.006024
 C         11.780301    1.032402   -0.045195
 C         12.208918    2.353361   -0.061885
 C         13.577772    2.574717   -0.085764
 C         14.474595    1.498033   -0.092346
 C         14.044050    0.177328   -0.076250
 C         12.664427   -0.060030   -0.052166
 C         11.871223   -1.317619   -0.032555
 C         12.426425   -2.588332   -0.045573
 C         13.833063   -2.832846   -0.070785
 N         14.970848   -3.084640   -0.090859
 C         11.674278   -3.802103   -0.039276
 N         11.109232   -4.821794   -0.036244
 H          9.623223   -2.859241    0.048593
 H         11.508439    3.181524   -0.056697
 F         14.074144    3.818318   -0.102740
 F         15.786365    1.770551   -0.115060
 H         14.792481   -0.602955   -0.082573
 C         -9.377833    1.803129   -0.034301
 C        -10.458525    0.939654    0.004872
 C        -10.385898   -0.536823    0.017414
 O         -9.382422   -1.242657    0.006006
 C        -11.780422   -1.032376    0.045111
 C        -12.209109   -2.353311    0.061854
 C        -13.577976   -2.574592    0.085726
 C        -14.474743   -1.497859    0.092253
 C        -14.044126   -0.177179    0.076108
 C        -12.664490    0.060100    0.052030
 C        -11.871226    1.317644    0.032390
 C        -12.426399    2.588370    0.045360
 C        -13.833035    2.832892    0.070543
 N        -14.970831    3.084644    0.090594
 C        -11.674241    3.802134    0.039047
 N        -11.109207    4.821832    0.036014
 H         -9.623177    2.859170   -0.048673
 H        -11.508676   -3.181512    0.056704
 F        -14.074416   -3.818165    0.102746
 F        -15.786529   -1.770306    0.114965
 H        -14.792511    0.603150    0.082396
 C          3.547359    1.332014    1.347374
 C          4.708787    2.116180    1.449583
 C          5.032050    2.777706    2.632193
 C          4.213568    2.683610    3.766177
 C          3.064097    1.892931    3.667428
 C          2.735689    1.228545    2.483999
 H          5.369325    2.223687    0.595080
 H          5.940674    3.374020    2.672967
 H          2.409868    1.788380    4.530008
 H          1.838816    0.619649    2.457965
 C          3.459894    1.306769   -1.259511
 C          3.463133    2.704342   -1.329951
 C          3.594153    3.365291   -2.554654
 C          3.724684    2.659476   -3.753862
 C          3.711277    1.258700   -3.683019
 C          3.583202    0.597544   -2.465122
 H          3.374937    3.297635   -0.426191
 H          3.598675    4.452906   -2.569229
 H          3.804826    0.674695   -4.595950
 H          3.575784   -0.488452   -2.454714
 C         -3.459864   -1.306798    1.259592
 C         -3.463101   -2.704369    1.330025
 C         -3.594137   -3.365325    2.554723
 C         -3.724681   -2.659517    3.753933
 C         -3.711275   -1.258740    3.683097
 C         -3.583188   -0.597577    2.465205
 H         -3.374899   -3.297657    0.426261
 H         -3.598667   -4.452941    2.569293
 H         -3.804835   -0.674738    4.596029
 H         -3.575775    0.488419    2.454803
 C         -3.547300   -1.332032   -1.347300
 C         -4.708700   -2.116239   -1.449539
 C         -5.031927   -2.777747   -2.632167
 C         -4.213439   -2.683598   -3.766144
 C         -3.063997   -1.892881   -3.667366
 C         -2.735623   -1.228515   -2.483915
 H         -5.369247   -2.223783   -0.595047
 H         -5.940528   -3.374095   -2.672966
 H         -2.409761   -1.788282   -4.529935
 H         -1.838765   -0.619597   -2.457861
 C          4.553918    3.424354    5.037657
 H          4.245515    4.476709    4.979400
 H          4.050516    2.983668    5.904068
 C          3.896143    3.371200   -5.074792
 H          3.294837    2.903504   -5.862517
 H          3.603718    4.423554   -5.003547
 C         -3.896141   -3.371244    5.074860
 H         -3.604119   -4.423702    5.003503
 H         -3.294498   -2.903814    5.862489
 C         -4.553749   -3.424336   -5.037637
 H         -4.050426   -2.983566   -5.904051
 H         -4.245224   -4.476658   -4.979425
 H          5.632554    3.415480    5.228922
 H          4.941812    3.341710   -5.408095
 H         -4.941729   -3.341375    5.408381
 H         -5.632392   -3.415578   -5.228865
 H          1.264084    2.491650    0.055074
 C         -0.391902   -1.857531   -0.015681
 H         -1.264056   -2.491669   -0.054972
 C          1.859151   -0.154011    0.058888
 C          1.991085   -1.544774    0.075739
 C          0.867819   -2.409929    0.038131
 O         -1.163631    3.736531   -0.053154
 O          1.163667   -3.736552    0.053252
 C         -0.081354    4.666391   -0.019583
 H          0.575823    4.534329   -0.886901
 H         -0.538532    5.655707   -0.050921
 H          0.500766    4.557732    0.903127
 C          0.081394   -4.666416    0.019665
 H          0.538576   -5.655730    0.051012
 H         -0.575802   -4.534351    0.886968
 H         -0.500706   -4.557766   -0.903058
       140
T1: Total Energy = -5586.88875798
 C          7.949486   -1.642053    0.060212
 C          7.094723   -2.774351    0.097126
 C          5.754125   -2.438463    0.113277
 C          5.507411   -1.035915    0.093071
 C          4.149095   -0.729906    0.092640
 C          3.357170   -1.892904    0.109060
 C          0.580252    0.442292    0.017984
 C          0.400375    1.864992    0.022253
 C         -0.851077    2.422421   -0.030822
 S          7.005237   -0.130899    0.053402
 S          4.264607   -3.384543    0.136351
 C          3.257226    0.518356    0.068464
 H          7.488407   -3.784255    0.106785
 C         -7.949490    1.642050   -0.060221
 C         -7.094729    2.774349   -0.097123
 C         -5.754129    2.438464   -0.113253
 C         -5.507413    1.035917   -0.093048
 C         -4.149096    0.729910   -0.092603
 C         -3.357174    1.892910   -0.109011
 C         -1.986077    1.560884   -0.071491
 C         -1.850480    0.149622   -0.058671
 C         -0.580253   -0.442281   -0.017912
 S         -7.005238    0.130898   -0.053393
 S         -4.264614    3.384547   -0.136310
 C         -3.257223   -0.518350   -0.068436
 H         -7.488415    3.784252   -0.106790
 C          9.349651   -1.817014    0.033494
 C         10.434504   -0.945332   -0.003951
 C         10.357035    0.533749   -0.013155
 O          9.349104    1.233591    0.002661
 C         11.748103    1.036265   -0.044022
 C         12.173057    2.357451   -0.060329
 C         13.542430    2.583020   -0.088302
 C         14.439276    1.508528   -0.099216
 C         14.011287    0.185104   -0.083327
 C         12.633417   -0.056000   -0.055078
 C         11.840611   -1.314262   -0.034055
 C         12.401039   -2.590972   -0.046953
 C         13.806465   -2.830208   -0.074027
 N         14.946208   -3.077209   -0.095629
 C         11.655528   -3.806411   -0.038176
 N         11.097937   -4.831265   -0.033057
 H          9.598325   -2.871663    0.045016
 H         11.470814    3.184155   -0.051905
 F         14.035116    3.829656   -0.105225
 F         15.751534    1.781565   -0.126024
 H         14.761622   -0.593336   -0.093230
 C         -9.349656    1.817008   -0.033529
 C        -10.434508    0.945324    0.003914
 C        -10.357041   -0.533757    0.013132
 O         -9.349110   -1.233599   -0.002676
 C        -11.748109   -1.036272    0.043994
 C        -12.173063   -2.357457    0.060310
 C        -13.542436   -2.583026    0.088279
 C        -14.439282   -1.508534    0.099182
 C        -14.011293   -0.185110    0.083282
 C        -12.633423    0.055994    0.055035
 C        -11.840616    1.314255    0.034004
 C        -12.401042    2.590966    0.046886
 C        -13.806467    2.830205    0.073952
 N        -14.946210    3.077210    0.095550
 C        -11.655528    3.806403    0.038095
 N        -11.097933    4.831254    0.032976
 H         -9.598332    2.871656   -0.045069
 H        -11.470820   -3.184161    0.051897
 F        -14.035123   -3.829662    0.105210
 F        -15.751540   -1.781570    0.125989
 H        -14.761628    0.593330    0.093177
 C          3.547240    1.321804    1.356575
 C          4.705971    2.109821    1.458481
 C          5.032628    2.762268    2.645102
 C          4.220950    2.654571    3.782803
 C          3.074938    1.858639    3.684215
 C          2.743639    1.202350    2.497330
 H          5.362156    2.226845    0.602052
 H          5.938844    3.362030    2.686074
 H          2.426832    1.742635    4.549845
 H          1.850672    0.587510    2.471916
 C          3.462663    1.305113   -1.252912
 C          3.470998    2.702812   -1.322022
 C          3.607073    3.363531   -2.545924
 C          3.738825    2.657682   -3.745430
 C          3.720546    1.257132   -3.675666
 C          3.586136    0.595706   -2.458456
 H          3.383266    3.296067   -0.418202
 H          3.615448    4.451044   -2.560021
 H          3.815043    0.673261   -4.588459
 H          3.573898   -0.490312   -2.450681
 C         -3.462668   -1.305132    1.252923
 C         -3.470914   -2.702831    1.322019
 C         -3.607005   -3.363571    2.545911
 C         -3.738859   -2.657742    3.745416
 C         -3.720668   -1.257189    3.675665
 C         -3.586241   -0.595744    2.458469
 H         -3.383102   -3.296073    0.418199
 H         -3.615310   -4.451084    2.559998
 H         -3.815249   -0.673331    4.588459
 H         -3.574076    0.490276    2.450703
 C         -3.547219   -1.321778   -1.356565
 C         -4.705916   -2.109844   -1.458476
 C         -5.032560   -2.762274   -2.645109
 C         -4.220903   -2.654512   -3.782818
 C         -3.074925   -1.858532   -3.684225
 C         -2.743638   -1.202259   -2.497328
 H         -5.362083   -2.226920   -0.602041
 H         -5.938750   -3.362076   -2.686084
 H         -2.426835   -1.742476   -4.549862
 H         -1.850698   -0.587380   -2.471911
 C          4.565373    3.385628    5.058562
 H          4.251829    4.436944    5.010629
 H          4.068962    2.935338    5.923996
 C          3.916786    3.369749   -5.065122
 H          3.318272    2.903174   -5.855542
 H          3.626006    4.422538   -4.994629
 C         -3.916817   -3.369825    5.065099
 H         -3.626379   -4.422700    4.994497
 H         -3.318015   -2.903484    5.855441
 C         -4.565307   -3.385553   -5.058592
 H         -4.068993   -2.935169   -5.924032
 H         -4.251639   -4.436835   -5.010721
 H          5.645113    3.380058    5.243168
 H          4.963909    3.338327   -5.393425
 H         -4.963870   -3.338085    5.393590
 H         -5.645057   -3.380099   -5.243142
 H          1.276286    2.493613    0.064701
 C         -0.400378   -1.864981   -0.022169
 H         -1.276291   -2.493602   -0.064603
 C          1.850479   -0.149612    0.058728
 C          1.986074   -1.560875    0.071555
 C          0.851073   -2.422411    0.030905
 O         -1.145728    3.746481   -0.042078
 O          1.145722   -3.746472    0.042177
 C         -0.062355    4.676709   -0.004012
 H          0.594458    4.546217   -0.871583
 H         -0.519624    5.665802   -0.032013
 H          0.517785    4.562811    0.919051
 C          0.062347   -4.676697    0.004126
 H          0.519613   -5.665791    0.032137
 H         -0.594463   -4.546193    0.871698
 H         -0.517796   -4.562809   -0.918936
       140
S1: Total Energy = -5586.87303434
 C          7.952900   -1.639592    0.060079
 C          7.105084   -2.767232    0.098243
 C          5.757686   -2.430414    0.113556
 C          5.514113   -1.033110    0.091190
 C          4.148623   -0.726766    0.090079
 C          3.362317   -1.886877    0.108337
 C          0.580146    0.443766    0.017175
 C          0.399074    1.865542    0.020998
 C         -0.853732    2.420284   -0.031899
 S          7.008869   -0.128951    0.050530
 S          4.270147   -3.376527    0.137609
 C          3.257515    0.520637    0.063196
 H          7.497299   -3.777727    0.109813
 C         -7.952907    1.639602   -0.060045
 C         -7.105092    2.767244   -0.098223
 C         -5.757694    2.430426   -0.113561
 C         -5.514121    1.033122   -0.091205
 C         -4.148631    0.726778   -0.090108
 C         -3.362325    1.886889   -0.108370
 C         -1.987186    1.555588   -0.071057
 C         -1.851158    0.146883   -0.056914
 C         -0.580154   -0.443756   -0.017227
 S         -7.008875    0.128962   -0.050524
 S         -4.270156    3.376539   -0.137630
 C         -3.257524   -0.520625   -0.063239
 H         -7.497308    3.777739   -0.109777
 C          9.360370   -1.814029    0.033924
 C         10.440473   -0.946180   -0.003831
 C         10.362443    0.533779   -0.014652
 O          9.353727    1.232675   -0.000978
 C         11.752786    1.035422   -0.043844
 C         12.177345    2.356544   -0.060328
 C         13.546831    2.583000   -0.086465
 C         14.444394    1.508317   -0.095518
 C         14.018092    0.184970   -0.079521
 C         12.639003   -0.058534   -0.052996
 C         11.852078   -1.314711   -0.032494
 C         12.411112   -2.593119   -0.044699
 C         13.815806   -2.833800   -0.069817
 N         14.956016   -3.080790   -0.089752
 C         11.663974   -3.806715   -0.037156
 N         11.102639   -4.830107   -0.032915
 H          9.607254   -2.869306    0.046629
 H         11.474552    3.182821   -0.053379
 F         14.039180    3.829940   -0.103322
 F         15.756372    1.783077   -0.120618
 H         14.768719   -0.593215   -0.087908
 C         -9.360376    1.814035   -0.033867
 C        -10.440470    0.946177    0.003902
 C        -10.362425   -0.533780    0.014722
 O         -9.353700   -1.232664    0.001037
 C        -11.752763   -1.035439    0.043892
 C        -12.177307   -2.356565    0.060354
 C        -13.546791   -2.583037    0.086467
 C        -14.444366   -1.508365    0.095519
 C        -14.018078   -0.185012    0.079546
 C        -12.638991    0.058508    0.053046
 C        -11.852080    1.314695    0.032577
 C        -12.411121    2.593098    0.044824
 C        -13.815816    2.833774    0.069917
 N        -14.956026    3.080765    0.089834
 C        -11.663987    3.806698    0.037346
 N        -11.102651    4.830089    0.033164
 H         -9.607268    2.869311   -0.046566
 H        -11.474504   -3.182834    0.053407
 F        -14.039126   -3.829984    0.103301
 F        -15.756341   -1.783140    0.120592
 H        -14.768715    0.593164    0.087931
 C          3.549863    1.327949    1.348177
 C          4.708300    2.117155    1.444278
 C          5.037735    2.773373    2.627995
 C          4.229391    2.668365    3.768346
 C          3.083670    1.871210    3.675459
 C          2.749454    1.211167    2.491561
 H          5.362009    2.231947    0.585669
 H          5.943570    3.373941    2.664608
 H          2.438170    1.757303    4.543288
 H          1.856908    0.595513    2.470812
 C          3.460000    1.302589   -1.261473
 C          3.464883    2.700281   -1.335296
 C          3.597984    3.356790   -2.561477
 C          3.730354    2.646731   -3.758843
 C          3.715384    1.246657   -3.684179
 C          3.584016    0.589048   -2.464327
 H          3.376892    3.296404   -0.433372
 H          3.603544    4.444269   -2.579638
 H          3.810059    0.659875   -4.595024
 H          3.574370   -0.496933   -2.452603
 C         -3.459997   -1.302586    1.261426
 C         -3.464904   -2.700277    1.335237
 C         -3.597995   -3.356796    2.561416
 C         -3.730329   -2.646746    3.758790
 C         -3.715337   -1.246670    3.684137
 C         -3.583979   -0.589053    2.464291
 H         -3.376945   -3.296393    0.433305
 H         -3.603578   -4.444275    2.579566
 H         -3.809988   -0.659895    4.594990
 H         -3.574316    0.496927    2.452576
 C         -3.549885   -1.327929   -1.348223
 C         -4.708337   -2.117111   -1.444329
 C         -5.037782   -2.773317   -2.628051
 C         -4.229433   -2.668319   -3.768400
 C         -3.083698   -1.871187   -3.675506
 C         -2.749471   -1.211155   -2.491605
 H         -5.362052   -2.231892   -0.585724
 H         -5.943629   -3.373867   -2.664668
 H         -2.438194   -1.757289   -4.543334
 H         -1.856914   -0.595518   -2.470851
 C          4.576977    3.403346    5.040924
 H          4.263403    4.454524    4.990349
 H          4.082677    2.955842    5.908986
 C          3.907936    3.355656   -5.080193
 H          3.360343    2.849554   -5.882777
 H          3.558202    4.391610   -5.029264
 C         -3.907882   -3.355671    5.080144
 H         -3.558592   -4.391767    5.029072
 H         -3.359874   -2.849844    5.882620
 C         -4.577031   -3.403288   -5.040981
 H         -4.082719   -2.955791   -5.909040
 H         -4.263479   -4.454473   -4.990410
 H          5.657170    3.398278    5.222784
 H          4.964863    3.380015   -5.376472
 H         -4.964743   -3.379596    5.376689
 H         -5.657223   -3.398197   -5.222845
 H          1.274096    2.495393    0.062588
 C         -0.399081   -1.865532   -0.021047
 H         -1.274103   -2.495384   -0.062630
 C          1.851150   -0.146873    0.056864
 C          1.987179   -1.555577    0.071011
 C          0.853724   -2.420274    0.031855
 O         -1.151858    3.742507   -0.044064
 O          1.151851   -3.742497    0.044033
 C         -0.071115    4.676515   -0.007549
 H          0.585119    4.546823   -0.875577
 H         -0.531770    5.663918   -0.036143
 H          0.509629    4.564803    0.915304
 C          0.071109   -4.676506    0.007520
 H          0.531764   -5.663908    0.036122
 H         -0.585128   -4.546808    0.875545
 H         -0.509632   -4.564800   -0.915336
