       134
S0: Total Energy = -5508.34242306
 C          8.299266    1.560314    0.241629
 C          7.347770    2.582951    0.395166
 C          6.040303    2.104973    0.396150
 C          5.941491    0.708579    0.240362
 C          4.606215    0.235979    0.260045
 C          3.703252    1.274936    0.423915
 C          0.476647   -0.504682   -0.175185
 C          0.033923   -1.766906   -0.661164
 C         -1.306270   -2.031205   -0.778529
 S          7.510936   -0.032512    0.091641
 S          4.466219    2.853442    0.547804
 C          4.079040   -1.191050    0.201330
 H          7.632832    3.623945    0.498331
 H         -1.637609   -2.997664   -1.148186
 C         -8.299302   -1.560336   -0.241700
 C         -7.347806   -2.582972   -0.395247
 C         -6.040340   -2.104992   -0.396199
 C         -5.941530   -0.708599   -0.240392
 C         -4.606251   -0.236002   -0.260036
 C         -3.703288   -1.274959   -0.423902
 C         -2.278735   -1.056057   -0.423854
 C         -1.857002    0.198313    0.028295
 C         -0.476685    0.504649    0.175232
 S         -7.510979    0.032490   -0.091697
 S         -4.466255   -2.853463   -0.547822
 C         -4.079073    1.191026   -0.201292
 H         -7.632865   -3.623965   -0.498432
 C          9.678489    1.887206    0.216525
 C         10.842507    1.153609    0.090101
 C         10.927371   -0.315982   -0.057802
 O         10.004746   -1.122887   -0.094708
 C         12.365158   -0.652378   -0.153513
 C         12.930853   -1.912280   -0.301515
 C         14.314131   -1.981173   -0.368583
 C         15.091451   -0.817556   -0.288408
 C         14.524115    0.441589   -0.140316
 C         13.127968    0.525287   -0.071203
 C         12.207934    1.682421    0.082922
 C         12.624279    2.999735    0.194055
 C         13.996187    3.396040    0.172742
 N         15.099960    3.769733    0.161088
 C         11.747997    4.117646    0.342254
 N         11.078013    5.063643    0.464837
 H          9.809172    2.958225    0.323608
 H         12.322217   -2.807988   -0.362750
 F         14.939161   -3.156467   -0.511084
 F         16.423284   -0.943854   -0.358747
 H         15.185261    1.295345   -0.085370
 C         -9.678526   -1.887216   -0.216614
 C        -10.842524   -1.153590   -0.090193
 C        -10.927336    0.316004    0.057715
 O        -10.004681    1.122879    0.094556
 C        -12.365109    0.652439    0.153508
 C        -12.930754    1.912353    0.301600
 C        -14.314026    1.981290    0.368731
 C        -15.091389    0.817703    0.288532
 C        -14.524104   -0.441454    0.140353
 C        -13.127962   -0.525199    0.071173
 C        -12.207969   -1.682357   -0.083048
 C        -12.624339   -2.999657   -0.194266
 C        -13.996250   -3.395951   -0.172975
 N        -15.100015   -3.769666   -0.161346
 C        -11.748070   -4.117567   -0.342542
 N        -11.078090   -5.063564   -0.465148
 H         -9.809230   -2.958231   -0.323720
 H        -12.322085    2.808037    0.362852
 F        -14.939011    3.156598    0.511315
 F        -16.423215    0.944043    0.358934
 H        -15.185284   -1.295182    0.085393
 C          4.912275   -2.051112   -0.755876
 C          5.803597   -3.024276   -0.296383
 C          6.576461   -3.762110   -1.197783
 C          6.480740   -3.554953   -2.576400
 C          5.584084   -2.573834   -3.029990
 C          4.817510   -1.830504   -2.139188
 H          5.900986   -3.215906    0.766718
 H          7.263522   -4.512524   -0.814805
 H          5.487797   -2.389105   -4.097653
 H          4.130762   -1.079643   -2.516329
 C          3.917091   -1.819365    1.593614
 C          3.176450   -3.005886    1.718768
 C          3.005036   -3.610707    2.959114
 C          3.570807   -3.060391    4.120814
 C          4.313731   -1.883992    3.988366
 C          4.482115   -1.267274    2.745123
 H          2.731375   -3.454592    0.836053
 H          2.423859   -4.527513    3.029404
 H          4.767149   -1.434552    4.868600
 H          5.060372   -0.350973    2.686263
 C         -3.917091    1.819370   -1.593560
 C         -3.176219    3.005743   -1.718702
 C         -3.004726    3.610568   -2.959039
 C         -3.570629    3.060393   -4.120737
 C         -4.313783    1.884133   -3.988301
 C         -4.482244    1.267411   -2.745073
 H         -2.731035    3.454341   -0.835987
 H         -2.423387    4.527272   -3.029318
 H         -4.767324    1.434812   -4.868531
 H         -5.060681    0.351224   -2.686220
 C         -4.912315    2.051063    0.755930
 C         -5.803717    3.024163    0.296452
 C         -6.576600    3.761958    1.197867
 C         -6.480831    3.554817    2.576483
 C         -5.584076    2.573785    3.030059
 C         -4.817483    1.830490    2.139242
 H         -5.901141    3.215785   -0.766646
 H         -7.263711    4.512334    0.814902
 H         -5.487717    2.389099    4.097723
 H         -4.130653    1.079700    2.516373
 C          7.309782   -4.354303   -3.553470
 H          6.674082   -4.923451   -4.243023
 H          7.941531   -3.699954   -4.166483
 C          3.365228   -3.714582    5.466471
 H          4.038981   -3.297311    6.221125
 H          2.337290   -3.570794    5.823813
 C         -3.364886    3.714512   -5.466403
 H         -2.337393    3.569182   -5.824412
 H         -4.039731    3.298395   -6.220721
 C         -7.310023    4.354007    3.553557
 H         -7.942959    3.699641    4.165339
 H         -6.674449    4.921887    4.244260
 H          7.963296   -5.063348   -3.036411
 H          3.538560   -4.795676    5.416028
 H         -3.536514    4.795858   -5.415667
 H         -7.962427    5.064132    3.036577
 H          0.770410   -2.511900   -0.936211
 C         -0.033960    1.766874    0.661207
 H         -0.770446    2.511869    0.936252
 C          1.856966   -0.198346   -0.028252
 C          2.278699    1.056029    0.423886
 C          1.306233    2.031176    0.778564
 H          1.637573    2.997637    1.148215
 O          2.745509   -1.149444   -0.423741
 O         -2.745547    1.149409    0.423786
       134
T1: Total Energy = -5508.29562884
 C         -8.295692   -1.579433    0.201593
 C         -7.334261   -2.609998    0.337550
 C         -6.034251   -2.134139    0.335226
 C         -5.930450   -0.727329    0.192521
 C         -4.610774   -0.260311    0.205952
 C         -3.688344   -1.310314    0.349463
 C         -0.479655    0.513702   -0.146290
 C         -0.029647    1.806437   -0.551747
 C          1.308434    2.083158   -0.646521
 S         -7.511827    0.016454    0.063815
 S         -4.461968   -2.892371    0.471006
 C         -4.099939    1.170070    0.185985
 H         -7.621346   -3.650838    0.431644
 H          1.635375    3.072333   -0.953288
 C          8.295693    1.579461   -0.201399
 C          7.334261    2.610024   -0.337311
 C          6.034254    2.134147   -0.335087
 C          5.930465    0.727328   -0.192491
 C          4.610793    0.260290   -0.206052
 C          3.688363    1.310287   -0.349557
 C          2.287225    1.092934   -0.352290
 C          1.850557   -0.205381    0.032123
 C          0.479674   -0.513768    0.146023
 S          7.511838   -0.016436   -0.063682
 S          4.461968    2.892367   -0.470889
 C          4.099958   -1.170094   -0.186237
 H          7.621339    3.650871   -0.431347
 C         -9.671399   -1.902173    0.183068
 C        -10.839962   -1.156405    0.073170
 C        -10.917393    0.317236   -0.055666
 O         -9.988443    1.117892   -0.088558
 C        -12.352738    0.665764   -0.137623
 C        -12.912874    1.929208   -0.265644
 C        -14.297566    2.006277   -0.322349
 C        -15.077292    0.845909   -0.251440
 C        -14.514035   -0.419310   -0.123094
 C        -13.118991   -0.510921   -0.064840
 C        -12.200208   -1.672659    0.068130
 C        -12.624192   -2.996872    0.165556
 C        -13.996454   -3.384260    0.147420
 N        -15.103625   -3.750915    0.137399
 C        -11.756282   -4.121038    0.293860
 N        -11.094657   -5.076048    0.400455
 H         -9.808120   -2.973033    0.277702
 H        -12.300592    2.822952   -0.319719
 F        -14.917347    3.188414   -0.445700
 F        -16.410161    0.976408   -0.310627
 H        -15.178918   -1.270579   -0.074374
 C          9.671400    1.902204   -0.182871
 C         10.839952    1.156428   -0.072984
 C         10.917345   -0.317196    0.056056
 O          9.988378   -1.117832    0.088911
 C         12.352675   -0.665731    0.138262
 C         12.912777   -1.929158    0.266605
 C         14.297459   -2.006231    0.323551
 C         15.077211   -0.845885    0.252558
 C         14.513989    0.419315    0.123873
 C         13.118956    0.510929    0.065370
 C         12.200215    1.672654   -0.067993
 C         12.624254    2.996813   -0.165868
 C         13.996532    3.384152   -0.147746
 N         15.103719    3.750757   -0.137749
 C         11.756406    4.120962   -0.294744
 N         11.094844    5.075966   -0.401772
 H          9.808120    2.973066   -0.277471
 H         12.300477   -2.822886    0.320751
 F         14.917206   -3.188350    0.447228
 F         16.410067   -0.976387    0.312004
 H         15.178888    1.270568    0.075107
 C         -4.906082    2.032750   -0.790047
 C         -5.813239    3.001036   -0.352367
 C         -6.562017    3.739135   -1.273570
 C         -6.425847    3.536740   -2.649441
 C         -5.513177    2.560010   -3.080635
 C         -4.770237    1.816454   -2.170656
 H         -5.943515    3.187515    0.708003
 H         -7.262965    4.485219   -0.908087
 H         -5.386091    2.378833   -4.145574
 H         -4.071516    1.068234   -2.531480
 C         -3.987883    1.775561    1.593096
 C         -3.298554    2.989887    1.750040
 C         -3.160626    3.572267    3.004594
 C         -3.708840    2.971072    4.149915
 C         -4.396433    1.765817    3.986065
 C         -4.532828    1.171442    2.727903
 H         -2.868617    3.478483    0.881206
 H         -2.619460    4.511024    3.099351
 H         -4.832547    1.275231    4.852749
 H         -5.070523    0.232797    2.646223
 C          3.987904   -1.775425   -1.593416
 C          3.298437   -2.989650   -1.750529
 C          3.160535   -3.571893   -3.005151
 C          3.708903   -2.970651   -4.150372
 C          4.396643   -1.765503   -3.986352
 C          4.533012   -1.171265   -2.728123
 H          2.868383   -3.478283   -0.881774
 H          2.619274   -4.510582   -3.100037
 H          4.832901   -1.274898   -4.852953
 H          5.070828   -0.232701   -2.646308
 C          4.906091   -2.032888    0.789701
 C          5.813253   -3.001126    0.351923
 C          6.562012   -3.739336    1.273052
 C          6.425817   -3.537104    2.648944
 C          5.513143   -2.560422    3.080238
 C          4.770224   -1.816755    2.170333
 H          5.943550   -3.187478   -0.708466
 H          7.262965   -4.485378    0.907493
 H          5.386039   -2.379370    4.145196
 H          4.071498   -1.068575    2.531233
 C         -7.229462    4.336008   -3.647324
 H         -6.576224    4.912881   -4.313647
 H         -7.837094    3.680571   -4.282982
 C         -3.554304    3.613151    5.507964
 H         -4.050394    3.026102    6.286601
 H         -2.496974    3.711774    5.782987
 C          3.554285   -3.612513   -5.508516
 H          2.496975   -3.709606   -5.784181
 H          4.051660   -3.026155   -6.286852
 C          7.229415   -4.336490    3.646746
 H          7.837082   -3.681132    4.282452
 H          6.576165   -4.913395    4.313029
 H         -7.903501    5.037756   -3.147096
 H         -3.983824    4.622310    5.521648
 H          3.982354   -4.622286   -5.521948
 H          7.903421   -5.038220    3.146448
 H         -0.765082    2.567009   -0.784035
 C          0.029666   -1.806501    0.551489
 H          0.765102   -2.567075    0.783763
 C         -1.850539    0.205321   -0.032365
 C         -2.287208   -1.092983    0.352093
 C         -1.308412   -2.083213    0.646303
 H         -1.635351   -3.072384    0.953085
 O         -2.735468    1.163387   -0.386136
 O          2.735487   -1.163454    0.385884
       134
S1: Total Energy = -5508.28168389
 C         -8.305157   -1.579893    0.192465
 C         -7.351073   -2.606456    0.319426
 C         -6.043440   -2.127260    0.315702
 C         -5.943236   -0.727098    0.179802
 C         -4.614053   -0.258669    0.191113
 C         -3.699985   -1.304906    0.329763
 C         -0.477627    0.515382   -0.145360
 C         -0.025151    1.806324   -0.540246
 C          1.318249    2.080822   -0.630482
 S         -7.522102    0.015861    0.058639
 S         -4.472325   -2.885134    0.443599
 C         -4.111452    1.173069    0.162162
 H         -7.635543   -3.648405    0.409126
 H          1.646662    3.071755   -0.929052
 C          8.305154    1.579864   -0.192570
 C          7.351075    2.606425   -0.319590
 C          6.043443    2.127226   -0.315956
 C          5.943235    0.727062   -0.180094
 C          4.614053    0.258634   -0.191453
 C          3.699987    1.304873   -0.330088
 C          2.290208    1.090698   -0.338325
 C          1.852551   -0.208399    0.037254
 C          0.477629   -0.515419    0.145009
 S          7.522096   -0.015904   -0.058923
 S          4.472332    2.885100   -0.443911
 C          4.111452   -1.173104   -0.162527
 H          7.635548    3.648379   -0.409223
 C         -9.689252   -1.902001    0.176954
 C        -10.852695   -1.158475    0.076109
 C        -10.929287    0.316913   -0.045699
 O         -9.999252    1.116369   -0.079957
 C        -12.363996    0.666383   -0.118313
 C        -12.923415    1.930841   -0.237035
 C        -14.308489    2.010219   -0.286289
 C        -15.089158    0.849904   -0.217215
 C        -14.527817   -0.416535   -0.098193
 C        -13.131226   -0.511816   -0.047368
 C        -12.218290   -1.673509    0.074899
 C        -12.641790   -2.999631    0.167893
 C        -14.013450   -3.387073    0.153941
 N        -15.121415   -3.752842    0.146865
 C        -11.773016   -4.123155    0.286923
 N        -11.108431   -5.077564    0.386061
 H         -9.824112   -2.973714    0.266865
 H        -12.310153    2.824031   -0.289634
 F        -14.927663    3.194039   -0.400490
 F        -16.422269    0.983181   -0.268963
 H        -15.193437   -1.267301   -0.050333
 C          9.689245    1.901985   -0.176880
 C         10.852685    1.158473   -0.075894
 C         10.929287   -0.316916    0.045896
 O          9.999259   -1.116382    0.080114
 C         12.363989   -0.666354    0.118795
 C         12.923412   -1.930798    0.237643
 C         14.308478   -2.010149    0.287140
 C         15.089137   -0.849820    0.218178
 C         14.527792    0.416606    0.099037
 C         13.131208    0.511859    0.047970
 C         12.218270    1.673532   -0.074471
 C         12.641754    2.999664   -0.167385
 C         14.013400    3.387145   -0.153133
 N         15.121352    3.752948   -0.145814
 C         11.772973    4.123163   -0.286593
 N         11.108380    5.077551   -0.385886
 H          9.824104    2.973702   -0.266745
 H         12.310158   -2.824000    0.290146
 F         14.927655   -3.193955    0.401470
 F         16.422241   -0.983071    0.270159
 H         15.193404    1.267384    0.051281
 C         -4.900708    2.014772   -0.845139
 C         -5.825131    2.981871   -0.442397
 C         -6.560750    3.697829   -1.391203
 C         -6.394191    3.473876   -2.760380
 C         -5.464518    2.498200   -3.156220
 C         -4.734642    1.776292   -2.218726
 H         -5.979639    3.184325    0.611738
 H         -7.275713    4.443298   -1.052715
 H         -5.314024    2.300335   -4.215098
 H         -4.023400    1.027431   -2.552963
 C         -4.024997    1.801608    1.559932
 C         -3.374273    3.038852    1.703565
 C         -3.254339    3.637936    2.951999
 C         -3.783380    3.031406    4.103602
 C         -4.431476    1.802696    3.952874
 C         -4.548902    1.190978    2.701254
 H         -2.960409    3.532048    0.829450
 H         -2.742904    4.594098    3.037006
 H         -4.851280    1.307484    4.824907
 H         -5.055400    0.234392    2.629334
 C          4.024999   -1.801623   -1.560308
 C          3.374285   -3.038871   -1.703958
 C          3.254377   -3.637950   -2.952397
 C          3.783423   -3.031405   -4.103990
 C          4.431521   -1.802700   -3.953243
 C          4.548923   -1.190987   -2.701617
 H          2.960425   -3.532082   -0.829851
 H          2.742963   -4.594123   -3.037414
 H          4.851353   -1.307491   -4.825264
 H          5.055431   -0.234408   -2.629681
 C          4.900716   -2.014812    0.844763
 C          5.825142   -2.981905    0.442012
 C          6.560754   -3.697878    1.390813
 C          6.394201   -3.473931    2.759991
 C          5.464506   -2.498279    3.155842
 C          4.734638   -1.776356    2.218354
 H          5.979639   -3.184360   -0.612123
 H          7.275701   -4.443360    1.052319
 H          5.313980   -2.300455    4.214723
 H          4.023371   -1.027522    2.552599
 C         -7.184007    4.248691   -3.788006
 H         -6.521999    4.816051   -4.453789
 H         -7.776332    3.577139   -4.421286
 C         -3.654120    3.694755    5.453944
 H         -4.083038    3.074776    6.246784
 H         -2.603577    3.885139    5.704768
 C          3.654088   -3.694694   -5.454354
 H          2.603439   -3.883785   -5.705737
 H          4.084176   -3.075284   -6.247006
 C          7.184175   -4.248597    3.787609
 H          7.778451   -3.577094    4.419126
 H          6.522197   -4.813963    4.455099
 H         -7.870973    4.956041   -3.314026
 H         -4.167763    4.663969    5.470432
 H          4.166529   -4.664544   -5.470504
 H          7.869405   -4.957658    3.313672
 H         -0.756734    2.571827   -0.768373
 C          0.025153   -1.806361    0.539897
 H          0.756736   -2.571866    0.768018
 C         -1.852550    0.208361   -0.037605
 C         -2.290207   -1.090732    0.337988
 C         -1.318247   -2.080856    0.630142
 H         -1.646659   -3.071789    0.928714
 O         -2.729888    1.169307   -0.381118
 O          2.729888   -1.169351    0.380753
