        97
S0: Total Energy = -3282.13718879
 C          0.730097   -1.028361   -0.000830
 C          1.180435    0.314028   -0.002118
 C          2.536501    0.606950   -0.004149
 C         -0.000046    1.283827   -0.000654
 H          2.896538    1.632460   -0.005240
 C          7.361817   -0.644951   -0.005251
 C          6.726005   -1.904665   -0.003673
 C          5.336801   -1.826630   -0.004070
 C          4.881706   -0.508571   -0.005433
 C          3.437966   -0.468310   -0.004438
 C          2.989274   -1.819104   -0.002703
 C          1.632135   -2.103755   -0.001132
 S          6.148324    0.660408   -0.007846
 C          4.169353   -2.801342   -0.002390
 H          1.272698   -3.129803    0.000042
 C         -0.730145   -1.028374    0.001060
 C         -1.180508    0.314007    0.001499
 C         -2.536579    0.606904    0.003405
 H         -2.896634    1.632407    0.003829
 C         -7.361857   -0.645085    0.005692
 C         -6.726034   -1.904791    0.004775
 C         -5.336832   -1.826727    0.005026
 C         -4.881765   -0.508653    0.005534
 C         -3.438026   -0.468371    0.004449
 C         -2.989308   -1.819158    0.003552
 C         -1.632163   -2.103784    0.002085
 S         -6.148408    0.660301    0.007403
 C         -4.169366   -2.801417    0.004008
 H         -1.272708   -3.129827    0.001455
 H          7.304160   -2.823214   -0.001443
 H         -7.304176   -2.823350    0.003044
 C          8.774984   -0.557661   -0.000942
 C          9.680184    0.487310   -0.001825
 H          9.206747   -1.552446    0.003609
 C          9.339467    1.926964   -0.019370
 C         11.140105    0.375843    0.006594
 O          8.219674    2.430427   -0.026876
 C         10.618392    2.670706   -0.028393
 C         11.689499    1.758225   -0.014541
 C         11.915113   -0.773850    0.034104
 C         10.806620    4.045606   -0.047767
 C         12.999474    2.250629   -0.020977
 C         13.343455   -0.765738    0.038192
 C         11.393209   -2.102977    0.064455
 C         12.117020    4.529594   -0.054109
 H          9.949528    4.712004   -0.057578
 C         13.194716    3.636020   -0.040988
 H         13.861014    1.597320   -0.011475
 N         14.507592   -0.821439    0.042365
 N         11.019315   -3.206972    0.090692
 H         12.303384    5.599348   -0.069280
 H         14.209670    4.022358   -0.046375
 C         -8.775021   -0.557756    0.001215
 C         -9.680143    0.487280    0.001643
 H         -9.206836   -1.552519   -0.003002
 C         -9.339369    1.926923    0.019529
 C        -11.140070    0.375878   -0.007108
 O         -8.219577    2.430385    0.027233
 C        -10.618280    2.670696    0.028826
 C        -11.689420    1.758263    0.014671
 C        -11.915114   -0.773762   -0.035666
 C        -10.806455    4.045595    0.048748
 C        -12.999377    2.250709    0.021402
 C        -13.343457   -0.765586   -0.039943
 C        -11.393270   -2.102888   -0.067195
 C        -12.116839    4.529629    0.055374
 H         -9.949337    4.711955    0.058762
 C        -13.194568    3.636099    0.041991
 H        -13.860941    1.597434    0.011734
 N        -14.507597   -0.821219   -0.044307
 N        -11.019439   -3.206879   -0.094455
 H        -12.303162    5.599384    0.070983
 H        -14.209508    4.022469    0.047632
 C         -0.002116    2.170662   -1.267073
 H         -0.003557    1.561982   -2.176944
 H         -0.887795    2.815495   -1.283729
 H          0.883437    2.815583   -1.286589
 C          0.002007    2.171689    1.265032
 H          0.003458    1.563748    2.175397
 H          0.887669    2.816558    1.281161
 H         -0.883556    2.816611    1.284015
 C          4.169059   -3.685137    1.265543
 H          3.283115   -4.329381    1.284572
 H          5.054949   -4.329622    1.282055
 H          4.170136   -3.074960    2.174190
 C          4.167572   -3.687923   -1.268388
 H          5.053320   -4.332617   -1.284395
 H          3.281489   -4.332046   -1.285040
 H          4.167775   -3.079742   -2.178376
 C         -4.169121   -3.686260   -1.263198
 H         -3.283169   -4.330506   -1.281740
 H         -5.055002   -4.330774   -1.279119
 H         -4.170264   -3.076826   -2.172341
 C         -4.167501   -3.686953    1.270733
 H         -3.281396   -4.331035    1.287873
 H         -4.167670   -3.078033    2.180227
 H         -5.053227   -4.331662    1.287327
        97
T1: Total Energy = -3282.08695090
 C          0.716049   -1.025318   -0.000212
 C          1.179693    0.327760   -0.000612
 C          2.526096    0.616037   -0.001843
 C         -0.000008    1.297744    0.000609
 H          2.891627    1.639167   -0.002235
 C          7.342254   -0.647987   -0.003743
 C          6.696585   -1.919080   -0.003034
 C          5.319216   -1.837784   -0.002853
 C          4.852572   -0.508138   -0.003256
 C          3.435342   -0.469046   -0.002396
 C          2.972074   -1.832558   -0.001657
 C          1.625953   -2.111843   -0.000716
 S          6.134524    0.665817   -0.004847
 C          4.153452   -2.813561   -0.001898
 H          1.261222   -3.135629   -0.000235
 C         -0.716059   -1.025320    0.000872
 C         -1.179707    0.327756    0.001569
 C         -2.526111    0.616029    0.002797
 H         -2.891645    1.639158    0.003400
 C         -7.342264   -0.648009    0.003782
 C         -6.696593   -1.919102    0.002898
 C         -5.319224   -1.837800    0.002958
 C         -4.852583   -0.508153    0.003733
 C         -3.435353   -0.469056    0.003034
 C         -2.972081   -1.832566    0.002016
 C         -1.625960   -2.111848    0.001093
 S         -6.134540    0.665798    0.005408
 C         -4.153457   -2.813573    0.001917
 H         -1.261226   -3.135633    0.000391
 H          7.276218   -2.836064   -0.002142
 H         -7.276222   -2.836086    0.001696
 C          8.749243   -0.565479   -0.001740
 C          9.660447    0.488782   -0.001986
 H          9.183638   -1.558246    0.000432
 C          9.318139    1.932489   -0.011713
 C         11.110284    0.381410    0.003310
 O          8.196850    2.432124   -0.016503
 C         10.594716    2.678253   -0.015516
 C         11.664037    1.762956   -0.007301
 C         11.888325   -0.776692    0.018070
 C         10.782973    4.052402   -0.025550
 C         12.973119    2.254670   -0.009579
 C         13.314456   -0.767438    0.020490
 C         11.370670   -2.105379    0.034131
 C         12.094515    4.536959   -0.027816
 H          9.926103    4.719282   -0.031425
 C         13.169450    3.641716   -0.019970
 H         13.834426    1.600956   -0.003792
 N         14.479611   -0.821387    0.022877
 N         11.004184   -3.213100    0.048052
 H         12.281554    5.606624   -0.035678
 H         14.185275    4.026198   -0.021921
 C         -8.749252   -0.565500    0.001513
 C         -9.660446    0.488770    0.001779
 H         -9.183652   -1.558264   -0.000965
 C         -9.318119    1.932470    0.011771
 C        -11.110283    0.381417   -0.003844
 O         -8.196822    2.432084    0.016949
 C        -10.594685    2.678252    0.015281
 C        -11.664018    1.762972    0.006694
 C        -11.888338   -0.776674   -0.018754
 C        -10.782923    4.052404    0.025364
 C        -12.973093    2.254707    0.008623
 C        -13.314468   -0.767402   -0.021495
 C        -11.370698   -2.105369   -0.034604
 C        -12.094459    4.536981    0.027278
 H         -9.926045    4.719270    0.031539
 C        -13.169405    3.641755    0.019050
 H        -13.834408    1.601007    0.002535
 N        -14.479622   -0.821342   -0.024155
 N        -11.004224   -3.213097   -0.048359
 H        -12.281484    5.606649    0.035161
 H        -14.185225    4.026253    0.020725
 C         -0.001266    2.184242   -1.265987
 H         -0.002121    1.576204   -2.176187
 H         -0.887040    2.828548   -1.282060
 H          0.884410    2.828633   -1.283782
 C          0.001247    2.183886    1.267456
 H          0.002105    1.575592    2.177485
 H          0.887020    2.828187    1.283709
 H         -0.884432    2.828267    1.285432
 C          4.156361   -3.697419    1.265869
 H          3.273651   -4.345951    1.283197
 H          5.045889   -4.336522    1.281827
 H          4.154003   -3.088012    2.174942
 C          4.155061   -3.698430   -1.268961
 H          5.044486   -4.337668   -1.285241
 H          3.272251   -4.346868   -1.284921
 H          4.151901   -3.089757   -2.178525
 C         -4.156220   -3.697142   -1.266052
 H         -3.273502   -4.345661   -1.283431
 H         -5.045740   -4.336249   -1.282255
 H         -4.153767   -3.087527   -2.174986
 C         -4.155206   -3.698732    1.268777
 H         -3.272400   -4.347176    1.284688
 H         -4.152145   -3.090266    2.178481
 H         -5.044635   -4.337971    1.284813
        97
S1: Total Energy = -3282.06977008
 C          0.716049   -1.025476   -0.000063
 C          1.178813    0.327489   -0.001408
 C          2.527078    0.615414   -0.003636
 C         -0.000008    1.297562    0.000200
 H          2.892889    1.638310   -0.004955
 C          7.341654   -0.649786   -0.005247
 C          6.702798   -1.914345   -0.002452
 C          5.317910   -1.833463   -0.002642
 C          4.856397   -0.508902   -0.004911
 C          3.432698   -0.468726   -0.003703
 C          2.971789   -1.831713   -0.001283
 C          1.625215   -2.111963    0.000135
 S          6.135278    0.662902   -0.009056
 C          4.154148   -2.811103   -0.000241
 H          1.260513   -3.135624    0.001745
 C         -0.716060   -1.025477    0.001344
 C         -1.178827    0.327488    0.002167
 C         -2.527092    0.615411    0.004205
 H         -2.892906    1.638306    0.005097
 C         -7.341664   -0.649800    0.005598
 C         -6.702807   -1.914359    0.003337
 C         -5.317919   -1.833474    0.003759
 C         -4.856408   -0.508910    0.005640
 C         -3.432710   -0.468732    0.004599
 C         -2.971798   -1.831719    0.002719
 C         -1.625224   -2.111966    0.001505
 S         -6.135292    0.662892    0.009210
 C         -4.154155   -2.811112    0.001940
 H         -1.260519   -3.135627    0.000282
 H          7.280971   -2.832265    0.000480
 H         -7.280978   -2.832280    0.000571
 C          8.756959   -0.564263   -0.001130
 C          9.662268    0.485746   -0.003527
 H          9.190179   -1.557815    0.005324
 C          9.317429    1.928932   -0.023854
 C         11.118146    0.381398    0.006310
 O          8.194693    2.426135   -0.033479
 C         10.592325    2.675676   -0.032029
 C         11.664180    1.760563   -0.015038
 C         11.896628   -0.776907    0.034727
 C         10.778209    4.049890   -0.052880
 C         12.973271    2.256995   -0.019638
 C         13.322259   -0.767087    0.039708
 C         11.378243   -2.104297    0.064365
 C         12.088863    4.537409   -0.057528
 H          9.919889    4.714882   -0.065095
 C         13.165913    3.643680   -0.041115
 H         13.835718    1.604810   -0.007563
 N         14.487959   -0.818506    0.044572
 N         11.007240   -3.210889    0.089747
 H         12.273966    5.607319   -0.073858
 H         14.180850    4.030707   -0.045037
 C         -8.756966   -0.564275    0.001022
 C         -9.662268    0.485739    0.002976
 H         -9.190190   -1.557826   -0.005388
 C         -9.317427    1.928920    0.023648
 C        -11.118142    0.381400   -0.007439
 O         -8.194691    2.426116    0.033591
 C        -10.592324    2.675665    0.031748
 C        -11.664178    1.760559    0.014267
 C        -11.896607   -0.776894   -0.036770
 C        -10.778209    4.049873    0.052974
 C        -12.973269    2.256992    0.018764
 C        -13.322237   -0.767079   -0.042172
 C        -11.378200   -2.104257   -0.067164
 C        -12.088863    4.537393    0.057525
 H         -9.919891    4.714859    0.065552
 C        -13.165912    3.643671    0.040639
 H        -13.835716    1.604814    0.006332
 N        -14.487935   -0.818500   -0.047395
 N        -11.007168   -3.210824   -0.093212
 H        -12.273967    5.607299    0.074148
 H        -14.180848    4.030700    0.044497
 C         -0.002142    2.183516   -1.266987
 H         -0.003599    1.575333   -2.177038
 H         -0.887845    2.827801   -1.282263
 H          0.883405    2.827932   -1.285192
 C          0.002124    2.184020    1.267032
 H          0.003580    1.576201    2.177326
 H          0.887826    2.828313    1.282054
 H         -0.883423    2.828445    1.284979
 C          4.157229   -3.693180    1.268940
 H          3.276251   -4.344061    1.286432
 H          5.048225   -4.330132    1.286384
 H          4.152987   -3.082521    2.177147
 C          4.155888   -3.697937   -1.266105
 H          5.046750   -4.335126   -1.281976
 H          3.274791   -4.348752   -1.280309
 H          4.150865   -3.090704   -2.176606
 C         -4.157062   -3.693785   -1.266825
 H         -3.276081   -4.344675   -1.283895
 H         -5.048052   -4.330750   -1.284088
 H         -4.152702   -3.083554   -2.175320
 C         -4.156064   -3.697352    1.268221
 H         -3.274966   -4.348156    1.282844
 H         -4.151159   -3.089691    2.178437
 H         -5.046928   -4.334532    1.284274
