       120
S0: Total Energy = -5050.59024209
 C         -6.049705   -0.723813   -0.060587
 C         -5.158558   -1.820603   -0.067658
 C         -3.821508   -1.451270   -0.061008
 C         -3.659845   -0.058492   -0.038246
 S         -5.144974    0.813928   -0.032013
 C         -2.463907   -2.170712   -0.026621
 C          6.049705    0.723817    0.060588
 C          5.158558    1.820606    0.067661
 C          3.821507    1.451273    0.061014
 C          3.659846    0.058495    0.038251
 S          5.144975   -0.813925    0.032015
 C          2.463906    2.170714    0.026630
 C         -7.446435   -0.937922   -0.075783
 C         -8.552243   -0.104850   -0.072010
 C         -8.517441    1.371308   -0.040805
 O         -7.529580    2.100023   -0.023053
 C         -9.923529    1.832543   -0.033206
 C        -10.385933    3.141807   -0.004133
 C        -11.760360    3.328002   -0.002492
 C        -12.629353    2.229110   -0.029567
 C        -12.164956    0.920023   -0.059134
 C        -10.779741    0.718093   -0.060626
 C         -9.954659   -0.518715   -0.089442
 C        -10.476285   -1.802836   -0.129550
 C        -11.876234   -2.084206   -0.137723
 N        -13.007227   -2.365425   -0.145452
 C         -9.691312   -2.994950   -0.170428
 N         -9.097656   -3.997589   -0.206289
 H         -7.659655   -2.000990   -0.092300
 H         -9.707295    3.987719    0.016572
 H        -12.893244    0.121094   -0.078922
 C          7.446436    0.937926    0.075780
 C          8.552243    0.104854    0.072005
 C          8.517441   -1.371304    0.040796
 O          7.529580   -2.100019    0.023048
 C          9.923529   -1.832539    0.033191
 C         10.385933   -3.141803    0.004113
 C         11.760360   -3.327997    0.002465
 C         12.629353   -2.229105    0.029539
 C         12.164957   -0.920019    0.059111
 C         10.779741   -0.718089    0.060609
 C          9.954659    0.518719    0.089433
 C         10.476285    1.802840    0.129544
 C         11.876234    2.084211    0.137712
 N         13.007226    2.365431    0.145436
 C          9.691311    2.994954    0.170432
 N          9.097655    3.997592    0.206308
 H          7.659655    2.000994    0.092298
 H          9.707295   -3.987715   -0.016591
 H         12.893245   -0.121089    0.078897
 C         -2.398775   -3.027131    1.254977
 C         -3.049021   -4.271212    1.291006
 C         -3.073526   -5.032006    2.456144
 C         -2.449001   -4.585501    3.630860
 C         -1.807295   -3.344141    3.591329
 C         -1.782360   -2.574301    2.425278
 H         -3.534292   -4.653978    0.397720
 H         -3.586920   -5.990910    2.452959
 H         -1.316338   -2.965956    4.484968
 H         -1.280633   -1.612030    2.441503
 C         -2.161392   -2.982155   -1.306109
 C         -1.174052   -3.978080   -1.297125
 C         -0.839089   -4.665172   -2.463231
 C         -1.471637   -4.383910   -3.681166
 C         -2.456415   -3.388553   -3.685087
 C         -2.794135   -2.696155   -2.521977
 H         -0.675577   -4.239131   -0.368470
 H         -0.075441   -5.438455   -2.421463
 H         -2.974253   -3.151080   -4.611548
 H         -3.564215   -1.932594   -2.568060
 C          2.161394    2.982154    1.306121
 C          1.174020    3.978047    1.297156
 C          0.839059    4.665130    2.463267
 C          1.471642    4.383891    3.681189
 C          2.456451    3.388566    3.685092
 C          2.794169    2.696176    2.521976
 H          0.675515    4.239079    0.368511
 H          0.075384    5.438387    2.421513
 H          2.974316    3.151111    4.611543
 H          3.564275    1.932639    2.568045
 C          2.398772    3.027134   -1.254968
 C          3.049052    4.271197   -1.291012
 C          3.073555    5.031987   -2.456153
 C          2.448995    4.585496   -3.630856
 C          1.807257    3.344154   -3.591309
 C          1.782324    2.574317   -2.425256
 H          3.534351    4.653952   -0.397737
 H          3.586976    5.990877   -2.452980
 H          1.316273    2.965980   -4.484938
 H          1.280571    1.612060   -2.441469
 C         -2.456958   -5.429628    4.883342
 H         -2.169123   -4.843965    5.761931
 H         -3.447923   -5.858649    5.069935
 C         -1.089896   -5.114684   -4.946759
 H         -1.913879   -5.124569   -5.667503
 H         -0.232710   -4.634503   -5.437290
 C          1.089904    5.114658    4.946788
 H          0.232642    4.634546    5.437253
 H          1.913847    5.124437    5.667576
 C          2.456954    5.429619   -4.883341
 H          3.447937    5.858584   -5.069972
 H          2.169053    4.843970   -5.761917
 H         -1.753808   -6.268750    4.800946
 H         -0.804663   -6.151677   -4.740219
 H          0.804783    6.151687    4.740268
 H          1.753855    6.268781   -4.800921
 C          2.266865   -0.243933    0.014081
 C          1.537930    0.945719   -0.003469
 C          0.155976    0.690550   -0.002442
 C         -0.155975   -0.690548    0.002450
 C         -2.266864    0.243935   -0.014074
 C         -1.537930   -0.945717    0.003478
 S         -1.287822    1.687648   -0.017420
 S          1.287823   -1.687646    0.017428
 H         -5.525663   -2.841152   -0.077835
 H          5.525662    2.841156    0.077838
 F         13.947714   -2.467785    0.026530
 F         12.288454   -4.558034   -0.024913
 F        -12.288454    4.558039    0.024882
 F        -13.947714    2.467789   -0.026565
       120
T1: Total Energy = -5050.55295467
 C          6.028991    0.711968   -0.049840
 C          5.125234    1.816690   -0.058895
 C          3.801373    1.447885   -0.046578
 C          3.630735    0.036344   -0.021394
 S          5.136416   -0.834604   -0.016948
 C          2.447417    2.175694   -0.019721
 C         -6.028991   -0.711972    0.049961
 C         -5.125233   -1.816693    0.059059
 C         -3.801372   -1.447889    0.046658
 C         -3.630738   -0.036347    0.021407
 S         -5.136420    0.834598    0.016931
 C         -2.447412   -2.175693    0.019750
 C          7.418453    0.933946   -0.067315
 C          8.533301    0.098037   -0.063750
 C          8.504584   -1.381088   -0.030029
 O          7.518734   -2.112155   -0.008049
 C          9.911325   -1.838027   -0.026865
 C         10.379444   -3.144596    0.002076
 C         11.755533   -3.324895   -0.001204
 C         12.617470   -2.222013   -0.032919
 C         12.146225   -0.913861   -0.062333
 C         10.761120   -0.718492   -0.058894
 C          9.927280    0.513645   -0.085868
 C         10.444313    1.805549   -0.128091
 C         11.841878    2.091292   -0.140740
 N         12.972553    2.376169   -0.152189
 C          9.657850    2.995075   -0.166609
 N          9.065755    3.999419   -0.200748
 H          7.630722    1.996444   -0.086582
 H          9.704925   -3.993724    0.026384
 H         12.870798   -0.111669   -0.085906
 C         -7.418452   -0.933950    0.067459
 C         -8.533299   -0.098040    0.063798
 C         -8.504568    1.381084    0.030071
 O         -7.518710    2.112141    0.008078
 C         -9.911305    1.838037    0.026920
 C        -10.379412    3.144610   -0.002005
 C        -11.755499    3.324922    0.001318
 C        -12.617447    2.222048    0.033058
 C        -12.146212    0.913892    0.062451
 C        -10.761110    0.718509    0.058966
 C         -9.927281   -0.513637    0.085899
 C        -10.444331   -1.805539    0.128002
 C        -11.841899   -2.091264    0.140666
 N        -12.972578   -2.376125    0.152129
 C         -9.657886   -2.995082    0.166362
 N         -9.065810   -3.999442    0.200350
 H         -7.630720   -1.996446    0.086837
 H         -9.704887    3.993732   -0.026331
 H        -12.870792    0.111706    0.086054
 C          2.383400    3.034347    1.260579
 C          3.027776    4.281627    1.291715
 C          3.054894    5.043013    2.456303
 C          2.439677    4.593809    3.634916
 C          1.805086    3.348525    3.600301
 C          1.778209    2.577743    2.435177
 H          3.506278    4.666319    0.395792
 H          3.562992    6.004640    2.449480
 H          1.322374    2.967824    4.497265
 H          1.282950    1.612149    2.455455
 C          2.159660    2.984213   -1.303659
 C          1.180513    3.988257   -1.305369
 C          0.855057    4.667896   -2.478331
 C          1.493529    4.375037   -3.690694
 C          2.464192    3.365945   -3.685217
 C          2.791637    2.679844   -2.515534
 H          0.676609    4.256606   -0.381735
 H          0.092516    5.442696   -2.447406
 H          2.975883    3.109741   -4.610033
 H          3.548082    1.902351   -2.555557
 C         -2.159611   -2.984266    1.303638
 C         -1.180534   -3.988373    1.305262
 C         -0.855053   -4.668064    2.478191
 C         -1.493427   -4.375192    3.690598
 C         -2.464021   -3.366028    3.685208
 C         -2.791490   -2.679880    2.515564
 H         -0.676701   -4.256731    0.381591
 H         -0.092567   -5.442915    2.447201
 H         -2.975633   -3.109807    4.610064
 H         -3.547876   -1.902331    2.555649
 C         -2.383440   -3.034299   -1.260591
 C         -3.027904   -4.281534   -1.291767
 C         -3.055059   -5.042892   -2.456372
 C         -2.439793   -4.593703   -3.634965
 C         -1.805117   -3.348465   -3.600311
 C         -1.778202   -2.577711   -2.435168
 H         -3.506451   -4.666213   -0.395861
 H         -3.563226   -6.004482   -2.449579
 H         -1.322367   -2.967773   -4.497259
 H         -1.282878   -1.612150   -2.455420
 C          2.451409    5.438418    4.886867
 H          2.158479    4.855238    5.765344
 H          3.445012    5.860875    5.074428
 C          1.164917    5.139575   -4.950943
 H          1.363882    4.540868   -5.845680
 H          0.113604    5.445454   -4.970797
 C         -1.164808   -5.139785    4.950811
 H         -0.113652   -5.446219    4.970350
 H         -1.363164   -4.540888    5.845559
 C         -2.451564   -5.438283   -4.886936
 H         -3.445184   -5.860697   -5.074501
 H         -2.158616   -4.855095   -5.765401
 H          1.754190    6.282200    4.802483
 H          1.770032    6.052610   -5.028397
 H         -1.770390   -6.052486    5.028555
 H         -1.754377   -6.282094   -4.802574
 C         -2.271059    0.259977    0.003751
 C         -1.513881   -0.955948   -0.007155
 C         -0.163777   -0.703148    0.000020
 C          0.163775    0.703151   -0.000010
 C          2.271055   -0.259976   -0.003744
 C          1.513879    0.955952    0.007175
 S          1.290075   -1.709103   -0.000803
 S         -1.290079    1.709105    0.000787
 H          5.493646    2.836288   -0.073089
 H         -5.493648   -2.836288    0.073336
 F        -13.937571    2.452451    0.034919
 F        -12.289030    4.553548   -0.025613
 F         12.289074   -4.553516    0.025750
 F         13.937597   -2.452404   -0.034731
       120
S1: Total Energy = -5050.53153602
 C          6.035838    0.719365   -0.050111
 C          5.139810    1.819402   -0.058506
 C          3.807804    1.448508   -0.047885
 C          3.642215    0.045784   -0.024042
 S          5.140283   -0.825375   -0.018317
 C          2.453568    2.173619   -0.019025
 C         -6.035801   -0.719307    0.050251
 C         -5.139767   -1.819340    0.058651
 C         -3.807761   -1.448442    0.048093
 C         -3.642174   -0.045717    0.024323
 S         -5.140244    0.825440    0.018697
 C         -2.453526   -2.173552    0.019224
 C          7.432695    0.938335   -0.068154
 C          8.541574    0.102891   -0.065127
 C          8.507473   -1.377341   -0.029296
 O          7.517819   -2.103475   -0.005635
 C          9.911614   -1.838318   -0.025954
 C         10.375421   -3.146011    0.004296
 C         11.751385   -3.331291    0.000476
 C         12.616781   -2.230809   -0.033015
 C         12.150720   -0.920919   -0.063803
 C         10.765382   -0.719301   -0.059883
 C          9.940367    0.513395   -0.088562
 C         10.460245    1.806669   -0.133576
 C         11.857465    2.089450   -0.145330
 N         12.989654    2.370821   -0.156028
 C          9.675900    2.996072   -0.176460
 N          9.082769    4.000482   -0.214141
 H          7.645631    2.000914   -0.087710
 H          9.697987   -3.992803    0.029871
 H         12.877874   -0.121096   -0.088743
 C         -7.432658   -0.938306    0.068118
 C         -8.541578   -0.102911    0.065025
 C         -8.507550    1.377329    0.029283
 O         -7.517935    2.103524    0.005902
 C         -9.911712    1.838238    0.025787
 C        -10.375588    3.145908   -0.004420
 C        -11.751565    3.331109   -0.000820
 C        -12.616905    2.230574    0.032420
 C        -12.150774    0.920708    0.063175
 C        -10.765425    0.719178    0.059481
 C         -9.940363   -0.513475    0.088188
 C        -10.460263   -1.806744    0.133081
 C        -11.857499   -2.089458    0.144550
 N        -12.989733   -2.370657    0.155005
 C         -9.675978   -2.996182    0.176097
 N         -9.082964   -4.000658    0.213834
 H         -7.645555   -2.000892    0.087552
 H         -9.698197    3.992740   -0.029806
 H        -12.877881    0.120833    0.087910
 C          2.390627    3.030234    1.262361
 C          3.033688    4.278278    1.294219
 C          3.061059    5.038245    2.459688
 C          2.447364    4.586977    3.638330
 C          1.813999    3.340943    3.602903
 C          1.786851    2.571485    2.437036
 H          3.510801    4.664572    0.398248
 H          3.568168    6.000368    2.453579
 H          1.332393    2.958859    4.499857
 H          1.292762    1.605243    2.456919
 C          2.160724    2.981636   -1.302045
 C          1.181872    3.985811   -1.300821
 C          0.852957    4.665052   -2.473108
 C          1.487559    4.371488   -3.687405
 C          2.457974    3.362013   -3.684705
 C          2.788858    2.676323   -2.515875
 H          0.681010    4.254708   -0.375675
 H          0.090936    5.440249   -2.440161
 H          2.966599    3.105288   -4.611042
 H          3.544520    1.898110   -2.557551
 C         -2.160667   -2.981547    1.302261
 C         -1.181613   -3.985528    1.301113
 C         -0.852676   -4.664726    2.473418
 C         -1.487454   -4.371310    3.687660
 C         -2.458063   -3.362024    3.684886
 C         -2.788969   -2.676374    2.516038
 H         -0.680599   -4.254298    0.376013
 H         -0.090495   -5.439768    2.440532
 H         -2.966828   -3.105413    4.611178
 H         -3.544784   -1.898306    2.557658
 C         -2.390581   -3.030187   -1.262143
 C         -3.033380   -4.278366   -1.293876
 C         -3.060735   -5.038381   -2.459317
 C         -2.447287   -4.587023   -3.638050
 C         -1.814177   -3.340855   -3.602747
 C         -1.787043   -2.571352   -2.436910
 H         -3.510291   -4.664735   -0.397828
 H         -3.567636   -6.000612   -2.453108
 H         -1.332765   -2.958704   -4.499776
 H         -1.293159   -1.605009   -2.456885
 C          2.459217    5.430147    4.891166
 H          2.168093    4.845608    5.769319
 H          3.452386    5.853893    5.078006
 C          1.155598    5.135806   -4.946822
 H          1.342390    4.533315   -5.841652
 H          0.106929    5.450869   -4.959116
 C         -1.155457   -5.135580    4.947096
 H         -0.106729   -5.450444    4.959477
 H         -1.342439   -4.533135    5.841918
 C         -2.459117   -5.430239   -4.890856
 H         -3.452215   -5.854216   -5.077549
 H         -2.168243   -4.845664   -5.769068
 H          1.760654    6.272979    4.808364
 H          1.768244    6.043190   -5.031222
 H         -1.767938   -6.043081    5.031435
 H         -1.760353   -6.272910   -4.808119
 C         -2.267439    0.252568    0.006495
 C         -1.522568   -0.952643   -0.007673
 C         -0.159772   -0.698116   -0.001715
 C          0.159814    0.698185    0.001950
 C          2.267480   -0.252501   -0.006236
 C          1.522610    0.952710    0.007887
 S          1.290389   -1.699188   -0.007995
 S         -1.290348    1.699255    0.008246
 H          5.506529    2.839638   -0.071535
 H         -5.506480   -2.839579    0.071584
 F        -13.936156    2.465826    0.034462
 F        -12.281092    4.561674   -0.028797
 F         12.280846   -4.561885    0.028470
 F         13.936017   -2.466137   -0.035281
