        93
S0: Total Energy = -2977.56715955
 C          7.232095    0.240178    0.027992
 C          7.791821   -0.987747    0.370729
 C          6.983897   -2.110076    0.546703
 C          5.590741   -1.992651    0.397314
 C          5.006370   -0.735944    0.073916
 C          5.846664    0.397576   -0.139439
 C          4.755815   -3.139356    0.558987
 C          3.396538   -3.036023    0.417569
 C          2.770568   -1.788845    0.133901
 C          3.584527   -0.636750   -0.041757
 C          2.978247    0.605183   -0.393364
 C          3.815236    1.726401   -0.703271
 C          5.234304    1.659459   -0.557697
 C          7.607119   -3.411087    0.884689
 N          6.741453   -4.508660    1.030009
 C          5.352308   -4.458043    0.886128
 C          3.219699    2.929362   -1.171593
 C          4.014959    4.048645   -1.473122
 C          5.395044    3.982617   -1.295767
 C          5.990861    2.807129   -0.846742
 C          1.560795    0.719298   -0.467287
 C          1.019158    1.907934   -1.040899
 C          1.809248    2.978632   -1.372698
 C          1.168658    4.192711   -1.940154
 N          2.013300    5.279746   -2.202658
 C          3.399191    5.290068   -1.993184
 O          8.817385   -3.537226    1.030787
 O          4.678709   -5.472492    1.029841
 O          4.050188    6.296439   -2.250861
 O         -0.035826    4.254587   -2.160574
 C          1.359568   -1.644115    0.061512
 C         -3.396525   -3.036032   -0.417564
 C         -4.755801   -3.139370   -0.558988
 C         -5.590731   -1.992667   -0.397321
 C         -5.006365   -0.735958   -0.073921
 C         -3.584523   -0.636760    0.041760
 C         -2.770560   -1.788853   -0.133892
 C         -6.983886   -2.110095   -0.546718
 C         -7.791814   -0.987768   -0.370749
 C         -7.232093    0.240158   -0.028011
 C         -5.846663    0.397560    0.139428
 C         -5.352288   -4.458059   -0.886131
 N         -6.741433   -4.508680   -1.030020
 C         -7.607102   -3.411108   -0.884708
 C         -5.234310    1.659446    0.557687
 C         -3.815243    1.726391    0.703270
 C         -2.978248    0.605175    0.393370
 C         -3.219712    2.929355    1.171594
 C         -1.809262    2.978629    1.372706
 C         -1.019167    1.907933    1.040913
 C         -1.560797    0.719294    0.467301
 C         -5.990871    2.807114    0.846726
 C         -5.395061    3.982604    1.295753
 C         -4.014976    4.048636    1.473116
 C         -3.399215    5.290062    1.993179
 N         -2.013325    5.279744    2.202662
 C         -1.168679    4.192710    1.940165
 O          0.035805    4.254592    2.160586
 O         -4.050216    6.296433    2.250847
 O         -4.678686   -5.472505   -1.029843
 O         -8.817367   -3.537251   -1.030812
 C         -1.359561   -1.644119   -0.061496
 C         -0.732943   -0.399786    0.076184
 C          0.732946   -0.399783   -0.076164
 H          7.898387    1.082171   -0.115987
 H          8.864206   -1.091088    0.493888
 H          2.803404   -3.934641    0.560503
 H          5.995381    4.856168   -1.524741
 H          7.068268    2.791607   -0.734637
 H         -0.039428    1.983896   -1.248326
 H         -2.803388   -3.934649   -0.560493
 H         -8.864198   -1.091112   -0.493914
 H         -7.898388    1.082150    0.115964
 H          0.039418    1.983898    1.248347
 H         -7.068278    2.791589    0.734614
 H         -5.995401    4.856155    1.524720
Te          0.000005   -3.249355    0.000014
 C         -7.314506   -5.819893   -1.358711
 H         -6.906820   -6.174145   -2.308419
 H         -7.057804   -6.540735   -0.579105
 H         -8.392996   -5.703103   -1.428741
 C         -1.427851    6.514822    2.738324
 H         -1.624764    7.343581    2.054407
 H         -1.877575    6.747884    3.706271
 H         -0.357722    6.356369    2.845544
 C          1.427820    6.514821   -2.738321
 H          1.624739    7.343583   -2.054410
 H          1.877534    6.747879   -3.706274
 H          0.357690    6.356367   -2.845531
 C          7.314532   -5.819871    1.358699
 H          6.906843   -6.174129    2.308403
 H          7.057838   -6.540712    0.579089
 H          8.393021   -5.703076    1.428734
        93
T1: Total Energy = -2977.50941728
 C          7.244061   -0.263947   -0.051531
 C          7.806629    0.963588   -0.391918
 C          7.001939    2.089626   -0.557328
 C          5.609238    1.976594   -0.399888
 C          5.021771    0.720605   -0.078878
 C          5.859356   -0.416868    0.123923
 C          4.777884    3.127004   -0.551105
 C          3.419116    3.027984   -0.402422
 C          2.790249    1.781773   -0.121173
 C          3.600529    0.626105    0.044535
 C          2.990613   -0.616265    0.393020
 C          3.826058   -1.741478    0.692880
 C          5.244747   -1.678448    0.540050
 C          7.627868    3.390019   -0.893045
 N          6.765360    4.491489   -1.028010
 C          5.377174    4.445284   -0.875259
 C          3.229471   -2.945107    1.158558
 C          4.022947   -4.068586    1.450266
 C          5.401984   -4.005624    1.266279
 C          5.999107   -2.829453    0.819983
 C          1.573763   -0.727011    0.475633
 C          1.031700   -1.916765    1.044288
 C          1.820237   -2.991956    1.365621
 C          1.178282   -4.208240    1.926836
 N          2.021030   -5.298981    2.179994
 C          3.406060   -5.311354    1.965942
 O          8.837528    3.512267   -1.046577
 O          4.706120    5.462735   -1.009219
 O          4.055859   -6.320394    2.216079
 O         -0.025532   -4.268283    2.151078
 C          1.379019    1.641248   -0.042528
 C         -3.362771    3.038497    0.419524
 C         -4.749403    3.150313    0.556793
 C         -5.583282    2.016555    0.398082
 C         -5.004219    0.751321    0.084394
 C         -3.587381    0.642970   -0.031668
 C         -2.757237    1.813074    0.138654
 C         -6.983154    2.143236    0.542689
 C         -7.808356    1.012306    0.372610
 C         -7.263945   -0.208292    0.047301
 C         -5.848646   -0.380153   -0.122664
 C         -5.332478    4.466981    0.875216
 N         -6.721574    4.532056    1.012762
 C         -7.595572    3.442393    0.868676
 C         -5.260030   -1.619861   -0.525301
 C         -3.842251   -1.704548   -0.673303
 C         -2.997022   -0.593342   -0.369568
 C         -3.259402   -2.911627   -1.157334
 C         -1.863919   -2.971575   -1.371062
 C         -1.043229   -1.885767   -1.037843
 C         -1.557842   -0.725754   -0.459125
 C         -6.043742   -2.788395   -0.817055
 C         -5.465576   -3.952307   -1.267005
 C         -4.071652   -4.028370   -1.459648
 C         -3.474875   -5.264603   -1.987715
 N         -2.089879   -5.265980   -2.195381
 C         -1.236834   -4.187567   -1.925312
 O         -0.027094   -4.260183   -2.137368
 O         -4.140421   -6.265361   -2.251834
 O         -4.646190    5.477995    1.019204
 O         -8.810367    3.577362    1.007456
 C         -1.333224    1.644755    0.059433
 C         -0.716918    0.405504   -0.055886
 C          0.744585    0.396876    0.095343
 H          7.908014   -1.109194    0.083879
 H          8.878605    1.063262   -0.521376
 H          2.829055    3.929936   -0.536905
 H          6.000967   -4.882076    1.487619
 H          7.075985   -2.816657    0.702758
 H         -0.026420   -1.992425    1.251947
 H         -2.774844    3.939004    0.568091
 H         -8.878739    1.131174    0.496507
 H         -7.928870   -1.052636   -0.083877
 H          0.013721   -1.989993   -1.239632
 H         -7.118874   -2.758680   -0.693493
 H         -6.067349   -4.825131   -1.493836
Te          0.023380    3.242029    0.007791
 C         -7.283871    5.849475    1.332770
 H         -6.878439    6.204270    2.283326
 H         -7.016043    6.565041    0.551955
 H         -8.363840    5.742666    1.397038
 C         -1.513792   -6.504317   -2.732151
 H         -1.703428   -7.330406   -2.042574
 H         -1.976891   -6.740583   -3.692899
 H         -0.444660   -6.348638   -2.853039
 C          1.434124   -6.536032    2.709500
 H          1.627996   -7.361008    2.020190
 H          1.885294   -6.775770    3.675155
 H          0.364535   -6.376070    2.819784
 C          7.341244    5.802066   -1.354435
 H          6.927795    6.162662   -2.299240
 H          7.093413    6.520014   -0.569303
 H          8.418692    5.681316   -1.433210
        93
S1: Total Energy = -2977.48855118
 C          7.250911   -0.249714   -0.039099
 C          7.810780    0.974473   -0.387884
 C          6.998510    2.094636   -0.569835
 C          5.605623    1.977062   -0.417563
 C          5.021407    0.724738   -0.084757
 C          5.859609   -0.407295    0.131059
 C          4.773015    3.120249   -0.586708
 C          3.409122    3.023706   -0.444821
 C          2.784802    1.784728   -0.147478
 C          3.603188    0.629507    0.039569
 C          2.997394   -0.601545    0.397458
 C          3.829873   -1.722776    0.702776
 C          5.249306   -1.659899    0.549769
 C          7.621151    3.397769   -0.919854
 N          6.756739    4.492992   -1.072742
 C          5.370511    4.440523   -0.925287
 C          3.232405   -2.921076    1.180681
 C          4.021796   -4.038212    1.477574
 C          5.407933   -3.982381    1.287869
 C          6.006629   -2.816938    0.835801
 C          1.564827   -0.718063    0.475637
 C          1.025860   -1.901397    1.061916
 C          1.820889   -2.965687    1.396762
 C          1.184921   -4.176888    1.986709
 N          2.026650   -5.269532    2.230858
 C          3.406311   -5.281567    2.005268
 O          8.830093    3.515532   -1.066440
 O          4.688132    5.446571   -1.072100
 O          4.066706   -6.282947    2.251794
 O         -0.011033   -4.220672    2.239469
 C          1.371801    1.628296   -0.078694
 C         -3.362122    3.035672    0.456137
 C         -4.736672    3.158614    0.583697
 C         -5.582257    2.026493    0.399614
 C         -5.008906    0.759067    0.068490
 C         -3.587922    0.641980   -0.039234
 C         -2.763776    1.799801    0.159523
 C         -6.978405    2.156958    0.538400
 C         -7.799081    1.031808    0.346741
 C         -7.256603   -0.191427    0.004460
 C         -5.857348   -0.365430   -0.158467
 C         -5.311171    4.467478    0.921932
 N         -6.702408    4.533442    1.046784
 C         -7.585887    3.448360    0.878292
 C         -5.264411   -1.619038   -0.575082
 C         -3.843821   -1.710104   -0.712054
 C         -2.995513   -0.599264   -0.395986
 C         -3.258453   -2.923420   -1.188715
 C         -1.850376   -2.994696   -1.378278
 C         -1.040630   -1.920826   -1.039059
 C         -1.564151   -0.741887   -0.480565
 C         -6.042240   -2.765338   -0.880649
 C         -5.462381   -3.936815   -1.328631
 C         -4.072452   -4.030586   -1.501354
 C         -3.481973   -5.267479   -2.019375
 N         -2.088924   -5.279105   -2.203896
 C         -1.225540   -4.211111   -1.918545
 O         -0.009487   -4.307824   -2.109111
 O         -4.140836   -6.270836   -2.301341
 O         -4.626865    5.480401    1.093960
 O         -8.801484    3.601588    1.013704
 C         -1.353731    1.612882    0.085300
 C         -0.732014    0.379546   -0.078571
 C          0.737971    0.382241    0.066244
 H          7.916045   -1.091898    0.106850
 H          8.882446    1.078073   -0.513178
 H          2.821700    3.923650   -0.598927
 H          6.000775   -4.861783    1.512574
 H          7.082548   -2.807025    0.713345
 H         -0.033858   -1.978062    1.260137
 H         -2.764520    3.926526    0.629279
 H         -8.870762    1.149637    0.465609
 H         -7.927139   -1.029145   -0.144080
 H          0.018556   -2.025663   -1.230478
 H         -7.119833   -2.730431   -0.776809
 H         -6.071127   -4.802404   -1.567248
Te          0.010546    3.204391    0.022990
 C         -7.261511    5.845751    1.382999
 H         -6.870444    6.182483    2.346639
 H         -6.977045    6.576751    0.622082
 H         -8.342999    5.743100    1.427645
 C         -1.518405   -6.520675   -2.733186
 H         -1.728451   -7.348449   -2.050936
 H         -1.967714   -6.752427   -3.701932
 H         -0.445709   -6.375575   -2.835729
 C          1.442504   -6.504083    2.773268
 H          1.651214   -7.335168    2.096537
 H          1.883957   -6.725069    3.747846
 H          0.370653   -6.350902    2.869352
 C          7.328595    5.803609   -1.413148
 H          6.913594    6.150597   -2.361967
 H          7.077753    6.527363   -0.634686
 H          8.406441    5.686433   -1.490288
