       126
S0: Total Energy = -5800.93884687
 C          5.640671   -2.269182   -0.042530
 C          5.423556   -0.870927   -0.016024
 C          4.058912   -0.533297   -0.016257
 C          3.256400   -1.674032   -0.033986
 S          4.131767   -3.179382   -0.053134
 C          3.201291    0.740717    0.034614
 C         -5.640663    2.269223    0.042575
 C         -5.423538    0.870969    0.016123
 C         -4.058894    0.533345    0.016463
 C         -3.256385    1.674081    0.034213
 S         -4.131762    3.179428    0.053247
 C         -3.201279   -0.740671   -0.034324
 C          9.248382   -1.720991   -0.068927
 C         10.345882   -0.878665   -0.065738
 C         10.300268    0.597569   -0.032681
 O          9.308918    1.320378   -0.009183
 C         11.705442    1.069097   -0.032164
 C         12.155333    2.379839   -0.005224
 C         13.534600    2.562144   -0.011125
 C         14.429612    1.492221   -0.042484
 C         13.953591    0.180079   -0.069699
 C         12.569621   -0.040708   -0.064444
 C         11.753472   -1.281241   -0.088998
 C         12.280566   -2.564054   -0.129619
 C         13.681281   -2.841288   -0.145352
 N         14.811998   -3.123885   -0.159349
 C         11.502451   -3.760791   -0.162754
 N         10.915170   -4.767602   -0.191934
 H          9.471953   -2.781667   -0.090289
 H         11.470465    3.220479    0.019066
 H         14.667886   -0.631158   -0.093733
 C         -9.248373    1.721005    0.068709
 C        -10.345865    0.878670    0.065444
 C        -10.300236   -0.597564    0.032396
 O         -9.308877   -1.320365    0.008978
 C        -11.705406   -1.069104    0.031762
 C        -12.155282   -2.379851    0.004781
 C        -13.534548   -2.562168    0.010569
 C        -14.429573   -1.492253    0.041858
 C        -13.953565   -0.180107    0.069116
 C        -12.569597    0.040693    0.063974
 C        -11.753460    1.281233    0.088600
 C        -12.280568    2.564041    0.129193
 C        -13.681287    2.841263    0.144825
 N        -14.812007    3.123851    0.158741
 C        -11.502466    3.760783    0.162406
 N        -10.915194    4.767598    0.191644
 H         -9.471954    2.781679    0.090042
 H        -11.470405   -3.220485   -0.019455
 H        -14.667870    0.631123    0.093095
 C          3.516705    1.491272    1.346773
 C          4.615324    2.361761    1.413632
 C          4.963155    2.984414    2.610452
 C          4.229322    2.766780    3.784863
 C          3.138466    1.893335    3.714668
 C          2.786579    1.264319    2.519118
 H          5.200727    2.566985    0.522461
 H          5.821909    3.651451    2.629774
 H          2.549868    1.698076    4.608106
 H          1.937466    0.588324    2.510155
 C          3.344454    1.626449   -1.222056
 C          2.903463    2.958169   -1.204092
 C          2.956806    3.745815   -2.352618
 C          3.448214    3.236867   -3.562453
 C          3.887136    1.908009   -3.575388
 C          3.833897    1.113779   -2.429047
 H          2.536238    3.395417   -0.280452
 H          2.615222    4.777265   -2.303782
 H          4.283171    1.483526   -4.495007
 H          4.182909    0.087404   -2.482154
 C         -3.344509   -1.626348    1.222378
 C         -2.903923   -2.958201    1.204320
 C         -2.957350   -3.745864    2.352829
 C         -3.448453   -3.236803    3.562741
 C         -3.886996   -1.907821    3.575764
 C         -3.833673   -1.113574    2.429437
 H         -2.536973   -3.395541    0.280613
 H         -2.616082   -4.777415    2.303919
 H         -4.282798   -1.483251    4.495443
 H         -4.182392   -0.087104    2.482614
 C         -3.516651   -1.491300   -1.346450
 C         -4.615109   -2.361998   -1.413224
 C         -4.962903   -2.984727   -2.610016
 C         -4.229190   -2.766963   -3.784477
 C         -3.138492   -1.893314   -3.714364
 C         -2.786644   -1.264220   -2.518844
 H         -5.200406   -2.567321   -0.522006
 H         -5.821531   -3.651928   -2.629275
 H         -2.549991   -1.697956   -4.607844
 H         -1.937654   -0.588067   -2.509940
 C          4.591990    3.469715    5.071601
 H          4.192669    2.940603    5.942745
 H          5.677910    3.551343    5.190156
 C          3.484416    4.088292   -4.809581
 H          4.220289    3.713902   -5.528282
 H          2.508476    4.094485   -5.312978
 C         -3.484747   -4.088252    4.809850
 H         -2.508755   -4.094717    5.313143
 H         -4.220445   -3.713686    5.528639
 C         -4.591817   -3.469976   -5.071185
 H         -5.677733   -3.551660   -5.189743
 H         -4.192516   -2.940885   -5.942351
 H          4.187178    4.490248    5.093887
 H          3.733860    5.129212   -4.577135
 H         -3.734493   -5.129099    4.577403
 H         -4.186959   -4.490492   -5.093420
 C         -1.883097    1.285286    0.024004
 C         -1.803249   -0.103908   -0.023890
 C         -0.463869   -0.533488   -0.019981
 C          0.463884    0.533534    0.020319
 C          1.883114   -1.285238   -0.023708
 C          1.803264    0.103953    0.024211
 S          0.339279   -2.094165   -0.065490
 S         -0.339262    2.094214    0.065794
 S         -6.925131   -0.008167    0.013290
 S          6.925158    0.008196   -0.013300
 C          6.982198   -2.629726   -0.061181
 C         -6.982195    2.629757    0.061117
 H         -7.355913    3.647320    0.081968
 H          7.355906   -3.647291   -0.082087
 C          7.847861   -1.519448   -0.050930
 C         -7.847849    1.519473    0.050823
 F        -14.027937   -3.812569   -0.014809
 F         14.028002    3.812541    0.014207
 H         15.494830    1.696736   -0.045432
 H        -15.494789   -1.696778    0.044718
       126
T1: Total Energy = -5800.90240758
 C         -5.604521    2.283402   -0.031524
 C         -5.383506    0.874917   -0.003337
 C         -4.037862    0.537976    0.000472
 C         -3.210450    1.694728   -0.016862
 S         -4.097391    3.203499   -0.039861
 C         -3.190156   -0.742974    0.048247
 C          5.604527   -2.283396    0.031590
 C          5.383508   -0.874911    0.003435
 C          4.037863   -0.537973   -0.000351
 C          3.210454   -1.694727    0.016989
 S          4.097398   -3.203496    0.039947
 C          3.190156    0.742975   -0.048114
 C         -9.208476    1.730254   -0.064911
 C        -10.310273    0.881048   -0.064465
 C        -10.262335   -0.595362   -0.029943
 O         -9.268654   -1.315930   -0.000894
 C        -11.665877   -1.071716   -0.035947
 C        -12.113679   -2.382558   -0.010676
 C        -13.493518   -2.567225   -0.023180
 C        -14.388461   -1.499014   -0.059208
 C        -13.913125   -0.184890   -0.084576
 C        -12.530580    0.037511   -0.072793
 C        -11.712327    1.278598   -0.093581
 C        -12.242636    2.564977   -0.136113
 C        -13.642706    2.838777   -0.158188
 N        -14.774396    3.119497   -0.177404
 C        -11.469170    3.763455   -0.164832
 N        -10.888293    4.774720   -0.190653
 H         -9.434874    2.789795   -0.087702
 H        -11.427965   -3.222445    0.017220
 H        -14.628302    0.625471   -0.112352
 C          9.208482   -1.730242    0.064838
 C         10.310279   -0.881035    0.064359
 C         10.262339    0.595376    0.029914
 O          9.268655    1.315947    0.001006
 C         11.665882    1.071728    0.035798
 C         12.113683    2.382572    0.010535
 C         13.493523    2.567236    0.022903
 C         14.388469    1.499023    0.058794
 C         13.913134    0.184898    0.084162
 C         12.530587   -0.037500    0.072515
 C         11.712334   -1.278587    0.093348
 C         12.242645   -2.564967    0.135826
 C         13.642716   -2.838770    0.157769
 N         14.774408   -3.119494    0.176872
 C         11.469178   -3.763442    0.164636
 N         10.888301   -4.774706    0.190517
 H          9.434882   -2.789783    0.087576
 H         11.427967    3.222460   -0.017258
 H         14.628312   -0.625465    0.111832
 C         -3.508371   -1.487262    1.363752
 C         -4.604464   -2.360732    1.432554
 C         -4.955433   -2.973750    2.633292
 C         -4.227925   -2.742931    3.809232
 C         -3.140435   -1.865326    3.736954
 C         -2.786218   -1.244862    2.537889
 H         -5.185640   -2.575456    0.541046
 H         -5.811872   -3.643537    2.654529
 H         -2.557660   -1.658992    4.631613
 H         -1.940797   -0.564107    2.528019
 C         -3.344246   -1.625882   -1.208843
 C         -2.924240   -2.964373   -1.191594
 C         -2.984434   -3.747615   -2.342718
 C         -3.462306   -3.227642   -3.553445
 C         -3.879878   -1.891878   -3.565207
 C         -3.818224   -1.101373   -2.416840
 H         -2.569478   -3.410285   -0.267286
 H         -2.659834   -4.784512   -2.295143
 H         -4.264640   -1.458751   -4.485465
 H         -4.150078   -0.069197   -2.469898
 C          3.344253    1.625865    1.208990
 C          2.924090    2.964309    1.191813
 C          2.984288    3.747527    2.342953
 C          3.462318    3.227575    3.553627
 C          3.880041    1.891858    3.565319
 C          3.818383    1.101377    2.416935
 H          2.569201    3.410207    0.267547
 H          2.659564    4.784387    2.295433
 H          4.264925    1.458749    4.485534
 H          4.150356    0.069237    2.469939
 C          3.508355    1.487277   -1.363614
 C          4.604441    2.360757   -1.432422
 C          4.955396    2.973781   -2.633161
 C          4.227883    2.742956   -3.809097
 C          3.140404    1.865339   -3.736814
 C          2.786201    1.244868   -2.537748
 H          5.185621    2.575483   -0.540917
 H          5.811828    3.643576   -2.654402
 H          2.557627    1.658999   -4.631471
 H          1.940791    0.564101   -2.527874
 C         -4.594480   -3.435429    5.100297
 H         -4.200582   -2.897696    5.968554
 H         -5.680645   -3.519254    5.214340
 C         -3.506284   -4.075203   -4.802777
 H         -4.233281   -3.687803   -5.523508
 H         -2.528317   -4.094855   -5.301812
 C          3.506300    4.075106    4.802979
 H          2.528382    4.094599    5.302116
 H          4.233428    3.687791    5.523625
 C          4.594429    3.435456   -5.100163
 H          5.680597    3.519158   -5.214279
 H          4.200409    2.897800   -5.968411
 H         -4.186711   -4.454475    5.132761
 H         -3.772404   -5.112687   -4.573793
 H          3.772244    5.112635    4.573999
 H          4.186780    4.454552   -5.132562
 C          1.872495   -1.309215    0.013357
 C          1.787582    0.115178   -0.032098
 C          0.478555    0.538584   -0.020578
 C         -0.478553   -0.538588    0.020727
 C         -1.872492    1.309213   -0.013213
 C         -1.787581   -0.115180    0.032245
 S         -0.320169    2.114840   -0.054805
 S          0.320173   -2.114844    0.054941
 S          6.897478    0.002935    0.001305
 S         -6.897478   -0.002925   -0.001245
 C         -6.936749    2.644027   -0.052380
 C          6.936756   -2.644019    0.052392
 H          7.311280   -3.660880    0.075141
 H         -7.311270    3.660889   -0.075160
 C         -7.812668    1.527910   -0.042826
 C          7.812672   -1.527899    0.042825
 F         13.984482    3.819755   -0.000533
 F        -13.984478   -3.819744    0.000255
 H        -15.453636   -1.703958   -0.067265
 H         15.453645    1.703965    0.066747
       126
S1: Total Energy = -5800.88361708
 C         -5.615946    2.276565   -0.026270
 C         -5.398119    0.874115   -0.001584
 C         -4.043251    0.537032    0.000263
 C         -3.226364    1.687482   -0.014726
 S         -4.109280    3.193819   -0.033278
 C         -3.193575   -0.741726    0.045602
 C          5.615935   -2.276561    0.026619
 C          5.398113   -0.874110    0.001950
 C          4.043245   -0.537019    0.000254
 C          3.226355   -1.687467    0.015312
 S          4.109266   -3.193808    0.033790
 C          3.193566    0.741742   -0.045004
 C         -9.226720    1.728876   -0.060801
 C        -10.325166    0.881885   -0.062210
 C        -10.275858   -0.596621   -0.027863
 O         -9.280743   -1.314793    0.000919
 C        -11.678157   -1.073523   -0.033354
 C        -12.124858   -2.384464   -0.008067
 C        -13.504960   -2.570628   -0.020269
 C        -14.400423   -1.502790   -0.056038
 C        -13.926738   -0.187970   -0.081535
 C        -12.543669    0.036819   -0.070034
 C        -11.729856    1.277058   -0.091614
 C        -12.260459    2.565788   -0.135668
 C        -13.659714    2.839526   -0.156051
 N        -14.792214    3.119241   -0.173799
 C        -11.487133    3.763104   -0.168261
 N        -10.904882    4.774153   -0.197307
 H         -9.452170    2.788768   -0.081858
 H        -11.438316   -3.223712    0.019526
 H        -14.642526    0.621859   -0.109160
 C          9.226718   -1.728896    0.060613
 C         10.325170   -0.881913    0.061759
 C         10.275867    0.596591    0.027329
 O          9.280751    1.314771   -0.001228
 C         11.678172    1.073481    0.032397
 C         12.124877    2.384416    0.006885
 C         13.504985    2.570569    0.018689
 C         14.400447    1.502725    0.054296
 C         13.926758    0.187911    0.080029
 C         12.543683   -0.036866    0.068926
 C         11.729865   -1.277095    0.090842
 C         12.260468   -2.565826    0.134889
 C         13.659727   -2.839576    0.154872
 N         14.792229   -3.119300    0.172307
 C         11.487140   -3.763130    0.167880
 N         10.904887   -4.774168    0.197231
 H          9.452165   -2.788789    0.081663
 H         11.438335    3.223667   -0.020584
 H         14.642546   -0.621921    0.107522
 C         -3.512412   -1.489298    1.358799
 C         -4.607824   -2.363921    1.423625
 C         -4.959426   -2.980868    2.622119
 C         -4.233196   -2.753106    3.799507
 C         -3.146287   -1.874376    3.731077
 C         -2.791354   -1.249914    2.534365
 H         -5.187925   -2.576190    0.530830
 H         -5.815394   -3.651317    2.640509
 H         -2.564571   -1.670421    4.626955
 H         -1.946715   -0.568102    2.527621
 C         -3.342574   -1.621752   -1.214070
 C         -2.918256   -2.958891   -1.199227
 C         -2.974630   -3.739614   -2.352239
 C         -3.452816   -3.218279   -3.562341
 C         -3.874832   -1.883857   -3.571487
 C         -3.817159   -1.095807   -2.421261
 H         -2.563433   -3.405853   -0.275408
 H         -2.646986   -4.775634   -2.306710
 H         -4.260140   -1.449946   -4.491126
 H         -4.152475   -0.064628   -2.471911
 C          3.342652    1.621752    1.214670
 C          2.918396    2.958910    1.199854
 C          2.974854    3.739622    2.352870
 C          3.453065    3.218255    3.562949
 C          3.875021    1.883814    3.572066
 C          3.817265    1.095776    2.421836
 H          2.563559    3.405897    0.276053
 H          2.647256    4.775657    2.307364
 H          4.260348    1.449879    4.491686
 H          4.152537    0.064582    2.472464
 C          3.512310    1.489339   -1.358213
 C          4.607625    2.364085   -1.423049
 C          4.959149    2.981070   -2.621544
 C          4.232935    2.753225   -3.798928
 C          3.146123    1.874378   -3.730487
 C          2.791267    1.249879   -2.533771
 H          5.187705    2.576425   -0.530257
 H          5.815042    3.651615   -2.639941
 H          2.564422    1.670360   -4.626361
 H          1.946703    0.567974   -2.527022
 C         -4.600485   -3.449887    5.087996
 H         -4.207647   -2.914748    5.958317
 H         -5.686693   -3.534693    5.200757
 C         -3.492768   -4.063094   -4.813620
 H         -4.220375   -3.676482   -5.534132
 H         -2.514252   -4.078252   -5.311735
 C          3.493105    4.063056    4.814234
 H          2.514626    4.078199    5.312424
 H          4.220768    3.676441    5.534687
 C          4.600145    3.450040   -5.087421
 H          5.686348    3.534818   -5.200262
 H          4.207226    2.914941   -5.957730
 H         -4.192180   -4.468812    5.117487
 H         -3.755561   -5.101985   -4.587249
 H          3.755871    5.101951    4.587856
 H          4.191870    4.468979   -5.116845
 C          1.874640   -1.299038    0.011963
 C          1.792689    0.112019   -0.031695
 C          0.472531    0.537168   -0.019877
 C         -0.472538   -0.537150    0.020594
 C         -1.874648    1.299055   -0.011283
 C         -1.792697   -0.112002    0.032377
 S         -0.328389    2.106813   -0.053630
 S          0.328382   -2.106794    0.054350
 S          6.909120    0.003436    0.000989
 S         -6.909120   -0.003442   -0.000837
 C         -6.954704    2.639335   -0.046015
 C          6.954693   -2.639340    0.046203
 H          7.327657   -3.656812    0.066645
 H         -7.327672    3.656805   -0.066505
 C         -7.824864    1.526914   -0.038695
 C          7.824860   -1.526925    0.038749
 F         13.994874    3.823765   -0.004959
 F        -13.994845   -3.823830    0.003143
 H        -15.465487   -1.708735   -0.063847
 H         15.465515    1.708661    0.061795
