        86
S0: Total Energy = -3816.55833998
 C         -7.002888   -0.925488    0.010707
 C         -6.056123   -1.971032    0.040647
 C         -4.746793   -1.507477    0.034778
 C         -4.650735   -0.085131   -0.004723
 C         -3.284401    0.172622   -0.006587
 C         -2.588121   -1.041685    0.030044
 C         -1.192970   -0.719904    0.029684
 C         -1.170282    0.712283   -0.002425
 C         -0.003070    1.467565   -0.028292
 S         -6.207893    0.682643   -0.028285
 H         -6.357764   -3.012052    0.065106
 C          7.002869    0.925457   -0.010655
 C          6.056100    1.970997   -0.040591
 C          4.746770    1.507438   -0.034711
 C          4.650719    0.085093    0.004794
 C          3.284385   -0.172666    0.006690
 C          2.588101    1.041637   -0.029937
 C          1.192951    0.719853   -0.029568
 C          1.170266   -0.712335    0.002539
 C          0.003053   -1.467617    0.028413
 S          6.207879   -0.682677    0.028334
 H          6.357738    3.012018   -0.065057
 C         -8.380902   -1.231661    0.015717
 C         -9.543563   -0.476695   -0.001349
 C         -9.615228    0.997901   -0.033075
 O         -8.684965    1.798418   -0.053919
 C        -11.051679    1.356122   -0.034987
 C        -11.607044    2.628529   -0.058143
 C        -12.991440    2.715540   -0.053085
 C        -13.778571    1.557017   -0.025582
 C        -13.220762    0.284447   -0.002684
 C        -11.824670    0.182842   -0.007589
 C        -10.910525   -0.990797    0.012292
 C        -11.339993   -2.310481    0.038163
 C        -12.715983   -2.690801    0.048315
 N        -13.823952   -3.052780    0.057395
 C        -10.473031   -3.444579    0.056928
 N         -9.809475   -4.403201    0.072833
 H         -8.524356   -2.306038    0.040786
 H        -10.990344    3.520588   -0.079017
 F        -13.606668    3.905046   -0.073923
 F        -15.111160    1.699923   -0.021453
 H        -13.889547   -0.564900    0.018028
 C          8.380882    1.231641   -0.015711
 C          9.543556    0.476694    0.001304
 C          9.615257   -0.997899    0.033131
 O          8.685014   -1.798438    0.054056
 C         11.051715   -1.356088    0.035044
 C         11.607110   -2.628481    0.058293
 C         12.991508   -2.715460    0.053210
 C         13.778612   -1.556921    0.025591
 C         13.220773   -0.284366    0.002598
 C         11.824680   -0.182793    0.007530
 C         10.910509    0.990823   -0.012444
 C         11.339951    2.310511   -0.038509
 C         12.715935    2.690851   -0.048719
 N         13.823900    3.052839   -0.057846
 C         10.472969    3.444590   -0.057458
 N          9.809399    4.403199   -0.073523
 H          8.524321    2.306020   -0.040790
 H         10.990431   -3.520552    0.079254
 F         13.606764   -3.904950    0.074132
 F         15.111204   -1.699797    0.021443
 H         13.889538    0.564995   -0.018201
 N          3.483801    2.085128   -0.061967
 N         -3.483827   -2.085172    0.062036
 O         -0.086076   -2.823591    0.094349
 O          0.086034    2.823544   -0.094230
 C          3.221546    3.519407   -0.074406
 H          2.163194    3.675685   -0.273556
 H          3.480205    3.967467    0.890990
 H          3.814955    3.994107   -0.860993
 C         -3.221586   -3.519454    0.074487
 H         -3.480381   -3.967536   -0.890861
 H         -2.163208   -3.675734    0.273497
 H         -3.814892   -3.994128    0.861168
 C          0.906669   -3.623062   -0.573663
 H          1.056956   -3.273215   -1.600107
 H          1.855343   -3.607774   -0.034025
 H          0.500892   -4.635539   -0.584232
 C         -0.906569    3.622969    0.574049
 H         -1.855377    3.607668    0.034648
 H         -1.056589    3.273088    1.600521
 H         -0.500822    4.635459    0.584548
 O          2.445936   -1.252191    0.031131
 O         -2.445947    1.252143   -0.031026
        86
T1: Total Energy = -3816.51722552
 C         -6.996358   -0.940678    0.006291
 C         -6.038149   -1.986873    0.007010
 C         -4.735718   -1.513195    0.010011
 C         -4.644482   -0.088929    0.008731
 C         -3.289248    0.172510    0.008250
 C         -2.568754   -1.053688    0.008772
 C         -1.200723   -0.719266    0.006517
 C         -1.174924    0.718598    0.006529
 C         -0.017057    1.473210    0.001428
 S         -6.214983    0.671551    0.007878
 H         -6.334793   -3.028901    0.004520
 C          6.996338    0.940665   -0.006308
 C          6.038129    1.986860   -0.007021
 C          4.735697    1.513185   -0.009963
 C          4.644460    0.088919   -0.008659
 C          3.289226   -0.172519   -0.008149
 C          2.568733    1.053680   -0.008659
 C          1.200701    0.719258   -0.006394
 C          1.174902   -0.718606   -0.006409
 C          0.017035   -1.473217   -0.001294
 S          6.214959   -0.671564   -0.007866
 H          6.334776    3.028887   -0.004541
 C         -8.374375   -1.248058    0.004611
 C         -9.540626   -0.486590    0.003193
 C         -9.607518    0.991289    0.000696
 O         -8.671646    1.786305    0.001533
 C        -11.041055    1.357524   -0.003314
 C        -11.592449    2.630742   -0.007326
 C        -12.978001    2.722389   -0.010851
 C        -13.765541    1.566049   -0.010237
 C        -13.210488    0.290032   -0.006091
 C        -11.815572    0.183788   -0.002588
 C        -10.902820   -0.990662    0.002292
 C        -11.337260   -2.317603    0.006058
 C        -12.712353   -2.692778    0.003967
 N        -13.822937   -3.050252    0.002350
 C        -10.476661   -3.453772    0.013025
 N         -9.819730   -4.418428    0.018880
 H         -8.519866   -2.321838    0.004422
 H        -10.973540    3.521584   -0.007739
 F        -13.589422    3.916059   -0.014926
 F        -15.098962    1.709567   -0.013800
 H        -13.881665   -0.557733   -0.005868
 C          8.374354    1.248050   -0.004640
 C          9.540614    0.486594   -0.003259
 C          9.607517   -0.991286   -0.000794
 O          8.671652   -1.786310   -0.001515
 C         11.041056   -1.357513    0.003212
 C         11.592461   -2.630726    0.007227
 C         12.978014   -2.722361    0.010717
 C         13.765545   -1.566014    0.010071
 C         13.210480   -0.290002    0.005927
 C         11.815564   -0.183774    0.002458
 C         10.902810    0.990672   -0.002397
 C         11.337282    2.317602   -0.006113
 C         12.712391    2.692720   -0.004070
 N         13.823004    3.050105   -0.002512
 C         10.476731    3.453808   -0.012921
 N          9.819878    4.418518   -0.018639
 H          8.519833    2.321830   -0.004448
 H         10.973560   -3.521573    0.007663
 F         13.589447   -3.916026    0.014785
 F         15.098968   -1.709520    0.013604
 H         13.881648    0.557773    0.005683
 N          3.470103    2.093977   -0.015799
 N         -3.470123   -2.093986    0.015869
 O         -0.115652   -2.814068   -0.001416
 O          0.115629    2.814061    0.001569
 C          3.226963    3.531510    0.010387
 H          2.164558    3.708211   -0.139184
 H          3.534777    3.954925    0.972284
 H          3.792908    4.013916   -0.791845
 C         -3.226984   -3.531519   -0.010317
 H         -3.534739   -3.954925   -0.972237
 H         -2.164588   -3.708223    0.139317
 H         -3.792979   -4.013930    0.791875
 C          1.037096   -3.674192   -0.061316
 H          1.611341   -3.487805   -0.971809
 H          1.670984   -3.534593    0.817059
 H          0.631440   -4.685583   -0.074295
 C         -1.037116    3.674185    0.061535
 H         -1.671021    3.534631   -0.816835
 H         -1.611343    3.487753    0.972030
 H         -0.631457    4.685574    0.074556
 O          2.462280   -1.246237   -0.007863
 O         -2.462303    1.246229    0.007972
        86
S1: Total Energy = -3816.50133504
 C         -7.002711   -0.939752    0.019557
 C         -6.054623   -1.982864    0.025418
 C         -4.743213   -1.510083    0.036839
 C         -4.653270   -0.092789    0.036642
 C         -3.288069    0.168139    0.041962
 C         -2.577421   -1.052899    0.045061
 C         -1.200202   -0.718874    0.046374
 C         -1.175726    0.714167    0.045173
 C         -0.012817    1.471356    0.039189
 S         -6.218557    0.669376    0.029499
 H         -6.351721   -3.024898    0.018322
 C          7.002739    0.939888    0.003919
 C          6.054800    1.983172    0.005980
 C          4.743298    1.510608    0.013695
 C          4.653156    0.093349    0.020120
 C          3.287945   -0.167341    0.027858
 C          2.577410    1.053811    0.026496
 C          1.200133    0.719885    0.032275
 C          1.175600   -0.713192    0.035083
 C          0.012708   -1.470375    0.041592
 S          6.218301   -0.669088    0.014889
 H          6.352151    3.025154    0.001187
 C         -8.389691   -1.246181    0.001700
 C         -9.548335   -0.488307   -0.008797
 C         -9.613638    0.991567    0.008529
 O         -8.675776    1.783675    0.029070
 C        -11.045485    1.357307   -0.002258
 C        -11.595538    2.631157    0.009037
 C        -12.980703    2.725236   -0.004855
 C        -13.770251    1.569055   -0.029361
 C        -13.218811    0.292881   -0.040867
 C        -11.821859    0.182125   -0.026985
 C        -10.918855   -0.991099   -0.033985
 C        -11.351297   -2.319147   -0.063359
 C        -12.725518   -2.695194   -0.085981
 N        -13.836618   -3.051828   -0.105093
 C        -10.489175   -3.453202   -0.076636
 N         -9.828206   -4.415662   -0.088677
 H         -8.533708   -2.320428   -0.006147
 H        -10.975175    3.520816    0.027832
 F        -13.591093    3.919469    0.004856
 F        -15.103081    1.716590   -0.041880
 H        -13.891203   -0.553737   -0.059591
 C          8.389813    1.246064   -0.010197
 C          9.548360    0.487985   -0.015904
 C          9.613388   -0.991858    0.004711
 O          8.675343   -1.783813    0.022613
 C         11.045221   -1.357794    0.001241
 C         11.595050   -2.631677    0.018319
 C         12.980251   -2.725957    0.010979
 C         13.770058   -1.569940   -0.013013
 C         13.218839   -0.293737   -0.030419
 C         11.821855   -0.182778   -0.023076
 C         10.919040    0.990532   -0.037155
 C         11.351769    2.318418   -0.069094
 C         12.726124    2.694233   -0.086977
 N         13.837349    3.050652   -0.102382
 C         10.489846    3.452506   -0.090360
 N          9.829065    4.414989   -0.108926
 H          8.534042    2.320273   -0.019165
 H         10.974493   -3.521211    0.036622
 F         13.590430   -3.920230    0.026640
 F         15.102909   -1.717663   -0.019054
 H         13.891416    0.552752   -0.048328
 N          3.479160    2.093150    0.012796
 N         -3.479039   -2.092438    0.048469
 O         -0.114852   -2.809913    0.044092
 O          0.114536    2.810932    0.037429
 C          3.235453    3.530654    0.036252
 H          2.171010    3.706325   -0.099912
 H          3.555435    3.957887    0.992410
 H          3.790059    4.010969   -0.775073
 C         -3.234533   -3.529617    0.016380
 H         -3.526281   -3.947323   -0.952995
 H         -2.174593   -3.707240    0.182081
 H         -3.812806   -4.017540    0.806237
 C          1.039482   -3.669810   -0.000982
 H          1.619680   -3.489391   -0.908698
 H          1.666400   -3.521925    0.880946
 H          0.634205   -4.681261   -0.008838
 C         -1.039789    3.670640    0.086713
 H         -1.667848    3.525582   -0.794845
 H         -1.618758    3.487241    0.994641
 H         -0.634541    4.682077    0.097323
 O          2.459690   -1.241519    0.032574
 O         -2.459873    1.242405    0.043772
