       143
S0: Total Energy = -4886.07965366
 C         -7.220678    0.605890   -0.005124
 C         -7.000334   -0.777826    0.006181
 C         -5.656639   -1.171120    0.015390
 C         -4.802557   -0.063409    0.006402
 S         -5.671132    1.451922   -0.002426
 C         -5.183301   -2.632396    0.039552
 C          7.220700    0.605858   -0.005456
 C          7.000345   -0.777857    0.005472
 C          5.656647   -1.171139    0.014674
 C          4.802573   -0.063422    0.005977
 S          5.671159    1.451906   -0.002404
 C          5.183305   -2.632418    0.038433
 C         -8.540385    1.119675   -0.013517
 C         -9.076873    2.394173   -0.023984
 C         -8.306517    3.656600   -0.030713
 O         -7.087509    3.796096   -0.028666
 C         -9.294151    4.758940   -0.041437
 C         -9.038568    6.124084   -0.050288
 C        -10.134650    6.973665   -0.059382
 C        -11.437416    6.457371   -0.059606
 C        -11.691260    5.091596   -0.050793
 C        -10.593355    4.222759   -0.041500
 C        -10.498849    2.739113   -0.030916
 C        -11.593944    1.888880   -0.028670
 C        -12.946278    2.347595   -0.035686
 N        -14.065860    2.671337   -0.041194
 C        -11.515107    0.463029   -0.019488
 N        -11.510105   -0.702651   -0.012557
 H         -9.257446    0.306213   -0.010857
 H         -8.027225    6.516094   -0.049983
 H        -12.721878    4.764755   -0.051523
 C          8.540407    1.119641   -0.013936
 C          9.076899    2.394142   -0.023887
 C          8.306554    3.656581   -0.029343
 O          7.087546    3.796087   -0.026975
 C          9.294194    4.758925   -0.039205
 C          9.038623    6.124079   -0.046589
 C         10.134709    6.973660   -0.055005
 C         11.437472    6.457359   -0.055979
 C         11.691305    5.091573   -0.048652
 C         10.593395    4.222734   -0.040087
 C         10.498878    2.739076   -0.031083
 C         11.593967    1.888828   -0.030432
 C         12.946296    2.347544   -0.037669
 N         14.065878    2.671286   -0.043437
 C         11.515112    0.462970   -0.023007
 N         11.510109   -0.702717   -0.017569
 H          9.257462    0.306174   -0.011831
 H          8.027285    6.516101   -0.045693
 H         12.721919    4.764724   -0.049875
 C         -5.780550   -3.255683    1.330895
 C         -7.082712   -3.778415    1.365546
 C         -7.644763   -4.238913    2.555803
 C         -6.935109   -4.194219    3.762428
 C         -5.642233   -3.658555    3.730237
 C         -5.076418   -3.197524    2.541487
 H         -7.669961   -3.838744    0.454992
 H         -8.655962   -4.639461    2.542412
 H         -5.065044   -3.596020    4.650155
 H         -4.074130   -2.782437    2.564996
 C         -5.635061   -3.352401   -1.261275
 C         -5.863429   -4.736014   -1.306937
 C         -6.177429   -5.376712   -2.505310
 C         -6.273870   -4.667440   -3.708871
 C         -6.031065   -3.289437   -3.665670
 C         -5.717706   -2.645259   -2.469139
 H         -5.807709   -5.327353   -0.399027
 H         -6.352360   -6.450362   -2.500463
 H         -6.085737   -2.706358   -4.582310
 H         -5.529234   -1.576424   -2.484996
 C          5.634652   -3.351962   -1.262786
 C          5.862804   -4.735578   -1.309077
 C          6.176418   -5.375830   -2.507801
 C          6.272677   -4.666087   -3.711087
 C          6.030087   -3.288054   -3.667258
 C          5.717119   -2.644332   -2.470392
 H          5.807227   -5.327298   -0.401404
 H          6.351200   -6.449505   -2.503437
 H          6.084623   -2.704598   -4.583667
 H          5.528810   -1.575463   -2.485767
 C          5.780933   -3.256181    1.329378
 C          7.082989   -3.779169    1.363429
 C          7.645372   -4.240080    2.553389
 C          6.936164   -4.195555    3.760263
 C          5.643370   -3.659615    3.728670
 C          5.077235   -3.198180    2.540246
 H          7.669923   -3.839367    0.452664
 H          8.656486   -4.640822    2.539548
 H          5.066520   -3.597182    4.648809
 H          4.075041   -2.782891    2.564205
 C         -7.534670   -4.723984    5.043489
 H         -7.348507   -5.800759    5.153459
 H         -7.105411   -4.228990    5.920795
 C         -6.649419   -5.358566   -4.998222
 H         -6.223757   -4.844746   -5.866525
 H         -6.302017   -6.397075   -5.011938
 C          6.647820   -5.356684   -5.000839
 H          6.302518   -6.395892   -5.013880
 H          6.219895   -4.843884   -5.868643
 C          7.535999   -4.725781    5.041007
 H          7.109681   -4.228411    5.918415
 H          7.346480   -5.801813    5.152535
 H         -8.620059   -4.579727    5.067099
 H         -7.738967   -5.379023   -5.134483
 H          7.737213   -5.374897   -5.138651
 H          8.621870   -4.584990    5.062775
 C          1.141238    0.795565   -0.043076
 C          0.688471   -0.524192   -0.007962
 C         -0.688466   -0.524189   -0.007886
 C         -1.141230    0.795570   -0.042950
 C          1.439406   -1.690486    0.026942
 C         -1.439400   -1.690482    0.027151
 C         -0.744397   -2.939328    0.071970
 C          0.744408   -2.939333    0.071837
 C         -1.576906   -4.062029    0.118940
 C         -2.974742   -3.924971    0.114284
 C         -3.640655   -2.692663    0.065784
 C         -2.847042   -1.525762    0.026317
 C         -3.365119   -0.159854   -0.004475
 C         -2.536218    0.980742   -0.037330
 H         -2.985038    1.969220   -0.053922
 H         -3.566908   -4.833149    0.148845
 C          2.536226    0.980738   -0.037619
 C          3.365129   -0.159862   -0.004897
 C          2.847048   -1.525768    0.025874
 H          2.985044    1.969217   -0.054246
 C          3.640663   -2.692677    0.065107
 C          2.974757   -3.924982    0.113684
 C          1.576920   -4.062038    0.118602
 H          3.566927   -4.833163    0.148089
 H          1.158345   -5.063585    0.158735
 H         -1.158325   -5.063574    0.159058
 N          0.000004    1.616187   -0.076902
 C          0.000034    3.070851   -0.055916
 H          0.000949    3.459081    0.968926
 H          0.884599    3.441301   -0.579097
 H         -0.885490    3.441257   -0.577488
 H         -7.831664   -1.473146    0.010351
 H          7.831664   -1.473193    0.009366
 F         12.458990    7.324313   -0.064311
 F          9.975559    8.303185   -0.062397
 F         -9.975496    8.303181   -0.068180
 F        -12.458929    7.324325   -0.068699
       143
T1: Total Energy = -4886.04519580
 C         -7.201888    0.606875    0.005937
 C         -6.980830   -0.786768    0.017095
 C         -5.647119   -1.179916    0.025782
 C         -4.778541   -0.068838    0.016797
 S         -5.654337    1.455397    0.008361
 C         -5.168452   -2.637613    0.041924
 C          7.201910    0.606850    0.005892
 C          6.980847   -0.786792    0.017071
 C          5.647134   -1.179933    0.025770
 C          4.778560   -0.068853    0.016773
 S          5.654362    1.455378    0.008324
 C          5.168462   -2.637627    0.041992
 C         -8.517359    1.121425   -0.003261
 C         -9.051880    2.404821   -0.014979
 C         -8.276045    3.664354   -0.021304
 O         -7.055676    3.798530   -0.017969
 C         -9.257309    4.772641   -0.033479
 C         -8.997379    6.136016   -0.042573
 C        -10.091303    6.990397   -0.053203
 C        -11.393615    6.477621   -0.054587
 C        -11.651931    5.111056   -0.045508
 C        -10.557838    4.238955   -0.034733
 C        -10.464735    2.754216   -0.023709
 C        -11.568082    1.904303   -0.023047
 C        -12.916621    2.368646   -0.031753
 N        -14.035373    2.698188   -0.038695
 C        -11.497300    0.479749   -0.014316
 N        -11.501330   -0.686795   -0.007923
 H         -9.238385    0.312127   -0.000456
 H         -7.984791    6.524961   -0.041349
 H        -12.683588    4.787416   -0.047181
 C          8.517378    1.121402   -0.003345
 C          9.051883    2.404805   -0.015063
 C          8.276016    3.664318   -0.021318
 O          7.055643    3.798462   -0.017899
 C          9.257251    4.772631   -0.033453
 C          8.997289    6.136000   -0.042435
 C         10.091192    6.990407   -0.053062
 C         11.393516    6.477663   -0.054549
 C         11.651864    5.111103   -0.045579
 C         10.557792    4.238977   -0.034807
 C         10.464730    2.754236   -0.023870
 C         11.568115    1.904370   -0.023310
 C         12.916628    2.368786   -0.032066
 N         14.035356    2.698408   -0.039058
 C         11.497411    0.479812   -0.014632
 N         11.501536   -0.686732   -0.008280
 H          9.238408    0.312109   -0.000571
 H          7.984691    6.524921   -0.041132
 H         12.683529    4.787484   -0.047326
 C         -5.764472   -3.275373    1.326920
 C         -7.063592   -3.805338    1.351514
 C         -7.625720   -4.279626    2.535979
 C         -6.919595   -4.241667    3.745187
 C         -5.629849   -3.698441    3.722071
 C         -5.063322   -3.223134    2.539230
 H         -7.648259   -3.858629    0.439012
 H         -8.634830   -4.684866    2.516252
 H         -5.055886   -3.640584    4.644187
 H         -4.063982   -2.800976    2.570756
 C         -5.606987   -3.351351   -1.268970
 C         -5.828664   -4.735387   -1.325209
 C         -6.133087   -5.367811   -2.530526
 C         -6.223689   -4.649779   -3.729190
 C         -5.986162   -3.270994   -3.674434
 C         -5.683647   -2.634285   -2.471542
 H         -5.778191   -5.333311   -0.421379
 H         -6.305443   -6.441767   -2.534595
 H         -6.038215   -2.681150   -4.586760
 H         -5.502474   -1.564196   -2.477879
 C          5.607037   -3.351464   -1.268834
 C          5.828752   -4.735500   -1.324951
 C          6.133206   -5.368020   -2.530208
 C          6.223801   -4.650087   -3.728935
 C          5.986227   -3.271307   -3.674301
 C          5.683678   -2.634502   -2.471467
 H          5.778283   -5.333347   -0.421070
 H          6.305593   -6.441971   -2.534182
 H          6.038270   -2.681542   -4.586679
 H          5.502468   -1.564421   -2.477899
 C          5.764450   -3.275286    1.327057
 C          7.063582   -3.805215    1.351730
 C          7.625683   -4.279410    2.536247
 C          6.919519   -4.241383    3.745429
 C          5.629765   -3.698178    3.722236
 C          5.063265   -3.222968    2.539344
 H          7.648281   -3.858553    0.439251
 H          8.634802   -4.684629    2.516580
 H          5.055774   -3.640263    4.644331
 H          4.063917   -2.800825    2.570812
 C         -7.520944   -4.785431    5.019381
 H         -7.350823   -5.866738    5.108430
 H         -7.080330   -4.312753    5.903194
 C         -6.589007   -5.331770   -5.026109
 H         -6.139781   -4.823802   -5.885958
 H         -6.260195   -6.376223   -5.035925
 C          6.589157   -5.332189   -5.025784
 H          6.259966   -6.376524   -5.035691
 H          6.140308   -4.824043   -5.885722
 C          7.520831   -4.785049    5.019681
 H          7.080407   -4.312084    5.903437
 H          7.350433   -5.866293    5.108960
 H         -8.603906   -4.625330    5.050617
 H         -7.676239   -5.331721   -5.180512
 H          7.676425   -5.332542   -5.179941
 H          8.603835   -4.625221    5.050801
 C          1.144583    0.801401   -0.038575
 C          0.680082   -0.533887   -0.011649
 C         -0.680065   -0.533885   -0.011633
 C         -1.144562    0.801404   -0.038561
 C          1.432233   -1.701908    0.024016
 C         -1.432219   -1.701904    0.024030
 C         -0.737716   -2.945691    0.068012
 C          0.737726   -2.945693    0.068022
 C         -1.575090   -4.080313    0.117939
 C         -2.961962   -3.943765    0.115921
 C         -3.629403   -2.699498    0.068178
 C         -2.838740   -1.538924    0.027515
 C         -3.366341   -0.169400    0.002770
 C         -2.518206    0.990615   -0.026659
 H         -2.970556    1.976643   -0.034803
 H         -3.559065   -4.847938    0.153530
 C          2.518228    0.990606   -0.026685
 C          3.366359   -0.169411    0.002751
 C          2.838754   -1.538932    0.027520
 H          2.970581    1.976633   -0.034829
 C          3.629413   -2.699507    0.068213
 C          2.961969   -3.943773    0.115980
 C          1.575096   -4.080315    0.117998
 H          3.559070   -4.847946    0.153622
 H          1.152046   -5.079444    0.158995
 H         -1.152043   -5.079445    0.158878
 N          0.000011    1.619676   -0.069883
 C          0.000006    3.074729   -0.049838
 H         -0.000176    3.462700    0.974898
 H          0.885331    3.443467   -0.572797
 H         -0.885128    3.443476   -0.573118
 H         -7.815543   -1.477621    0.021448
 H          7.815557   -1.477649    0.021425
 F         12.414600    7.346619   -0.065064
 F          9.926147    8.320764   -0.062136
 F         -9.926289    8.320757   -0.062382
 F        -12.414720    7.346553   -0.065107
       143
S1: Total Energy = -4886.02966543
 C         -7.214547    0.601630    0.010495
 C         -6.994247   -0.784233    0.024171
 C         -5.650242   -1.174985    0.026297
 C         -4.793216   -0.067904    0.010632
 S         -5.667843    1.451491    0.002561
 C         -5.171214   -2.631441    0.041500
 C          7.214562    0.601620    0.010572
 C          6.994258   -0.784240    0.024402
 C          5.650253   -1.174988    0.026413
 C          4.793229   -0.067907    0.010585
 S          5.667861    1.451484    0.002333
 C          5.171221   -2.631443    0.041621
 C         -8.536550    1.119778    0.007995
 C         -9.069325    2.397835   -0.004538
 C         -8.291836    3.659023   -0.022804
 O         -7.071434    3.790654   -0.028076
 C         -9.272326    4.766187   -0.034963
 C         -9.011974    6.129189   -0.053970
 C        -10.105452    6.984608   -0.062460
 C        -11.408163    6.471879   -0.052033
 C        -11.668032    5.106086   -0.032941
 C        -10.574281    4.231224   -0.024217
 C        -10.485233    2.751110   -0.004673
 C        -11.588952    1.898504    0.010695
 C        -12.937210    2.361392    0.009659
 N        -14.056347    2.691457    0.009423
 C        -11.516423    0.475046    0.029360
 N        -11.518025   -0.691981    0.044324
 H         -9.255988    0.308890    0.017910
 H         -7.999085    6.517344   -0.061800
 H        -12.699888    4.783097   -0.025791
 C          8.536565    1.119769    0.008513
 C          9.069344    2.397822   -0.004209
 C          8.291862    3.658985   -0.024232
 O          7.071461    3.790607   -0.030134
 C          9.272355    4.766136   -0.037272
 C          9.012008    6.129111   -0.058114
 C         10.105486    6.984524   -0.067140
 C         11.408194    6.471815   -0.055406
 C         11.668057    5.106049   -0.034416
 C         10.574306    4.231192   -0.025158
 C         10.485253    2.751104   -0.003600
 C         11.588961    1.898533    0.014273
 C         12.937222    2.361413    0.013357
 N         14.056361    2.691473    0.013270
 C         11.516413    0.475116    0.035871
 N         11.517979   -0.691878    0.053277
 H          9.256003    0.308888    0.018966
 H          7.999122    6.517252   -0.066924
 H         12.699910    4.783072   -0.026333
 C         -5.773619   -3.274814    1.320632
 C         -7.069213   -3.813307    1.334438
 C         -7.637411   -4.292594    2.514150
 C         -6.941027   -4.251445    3.728733
 C         -5.654636   -3.699587    3.716308
 C         -5.082315   -3.219017    2.538583
 H         -7.646625   -3.868978    0.417490
 H         -8.643837   -4.703885    2.486201
 H         -5.088262   -3.639018    4.642926
 H         -4.086336   -2.789520    2.578750
 C         -5.599975   -3.343073   -1.274781
 C         -5.812455   -4.728392   -1.336952
 C         -6.108788   -5.357991   -2.545685
 C         -6.199955   -4.635763   -3.741858
 C         -5.971672   -3.255628   -3.680903
 C         -5.677067   -2.621671   -2.474622
 H         -5.761587   -5.329589   -0.435296
 H         -6.274315   -6.432979   -2.554548
 H         -6.025134   -2.662500   -4.590997
 H         -5.503310   -1.550358   -2.475558
 C          5.599882   -3.343036   -1.274721
 C          5.812251   -4.728370   -1.336966
 C          6.108469   -5.357938   -2.545743
 C          6.199622   -4.635666   -3.741891
 C          5.971453   -3.255516   -3.680861
 C          5.676966   -2.621588   -2.474534
 H          5.761384   -5.329604   -0.435335
 H          6.273909   -6.432939   -2.554662
 H          6.024905   -2.662352   -4.590933
 H          5.503288   -1.550264   -2.475419
 C          5.773699   -3.274866    1.320685
 C          7.069251   -3.813449    1.334373
 C          7.637531   -4.292762    2.514041
 C          6.941266   -4.251553    3.728683
 C          5.654907   -3.699602    3.716375
 C          5.082512   -3.219005    2.538705
 H          7.646578   -3.869159    0.417374
 H          8.643930   -4.704108    2.486004
 H          5.088630   -3.638976    4.643050
 H          4.086570   -2.789428    2.578958
 C         -7.548388   -4.800580    4.997731
 H         -7.360468   -5.878382    5.093353
 H         -7.126835   -4.316902    5.884915
 C         -6.556570   -5.314967   -5.042596
 H         -6.109346   -4.799691   -5.899116
 H         -6.219555   -6.356759   -5.056096
 C          6.556097   -5.314844   -5.042681
 H          6.218982   -6.356603   -5.056208
 H          6.108870   -4.799487   -5.899150
 C          7.548685   -4.800718    4.997640
 H          7.128051   -4.316202    5.884806
 H          7.359694   -5.878281    5.093864
 H         -8.634196   -4.659135    5.015066
 H         -7.643399   -5.322806   -5.199560
 H          7.642915   -5.322780   -5.199712
 H          8.634641   -4.660370    5.014383
 C          1.142589    0.800411   -0.056166
 C          0.683519   -0.527053   -0.020269
 C         -0.683506   -0.527051   -0.020232
 C         -1.142574    0.800414   -0.056115
 C          1.434277   -1.692178    0.023059
 C         -1.434264   -1.692176    0.023073
 C         -0.738471   -2.937931    0.076437
 C          0.738482   -2.937929    0.076503
 C         -1.575463   -4.069446    0.135415
 C         -2.965018   -3.933016    0.132030
 C         -3.632923   -2.691953    0.074131
 C         -2.840068   -1.527811    0.025340
 C         -3.364793   -0.163365   -0.007541
 C         -2.528347    0.987032   -0.045822
 H         -2.979895    1.973501   -0.061113
 H         -3.560564   -4.837730    0.176789
 C          2.528361    0.987029   -0.045900
 C          3.364807   -0.163370   -0.007611
 C          2.840080   -1.527812    0.025355
 H          2.979909    1.973497   -0.061206
 C          3.632932   -2.691948    0.074306
 C          2.965026   -3.933001    0.132398
 C          1.575471   -4.069432    0.135751
 H          3.560571   -4.837705    0.177370
 H          1.153771   -5.068774    0.185290
 H         -1.153765   -5.068803    0.184672
 N          0.000007    1.619719   -0.091501
 C          0.000013    3.075782   -0.077024
 H          0.000133    3.465833    0.946653
 H          0.885202    3.442447   -0.601252
 H         -0.885301    3.442445   -0.601040
 H         -7.825559   -1.478953    0.035288
 H          7.825565   -1.478960    0.035787
 F         12.428481    7.341796   -0.065023
 F          9.939883    8.315030   -0.087320
 F         -9.939845    8.315139   -0.080846
 F        -12.428449    7.341868   -0.061034
