       142
S0: Total Energy = -5191.20635212
 C          9.077286   -1.541182   -0.019559
 C          8.409577   -2.777158   -0.004230
 C          5.209790   -0.874499    0.007173
 C          4.779038    0.453881    0.011878
 C          3.381856    0.574095    0.004994
 C          2.730572   -0.648884    0.002713
 C          1.297514   -0.476365    0.006287
 C          1.050998    0.923503    0.033166
 C         -0.247372    1.407322    0.021811
 S          7.905378   -0.222006   -0.019279
 S          3.821305   -1.987913    0.005938
 C          2.373955    1.725606    0.044001
 H          8.954856   -3.713022   -0.002132
 H         -0.450651    2.473999    0.032342
 C         -9.077284    1.541170    0.019623
 C         -8.409576    2.777148    0.004380
 C         -5.209786    0.874494   -0.006920
 C         -4.779033   -0.453886   -0.011598
 C         -3.381851   -0.574100   -0.004735
 C         -2.730569    0.648880   -0.002435
 C         -1.297510    0.476364   -0.006030
 C         -1.050993   -0.923502   -0.032928
 C          0.247375   -1.407323   -0.021554
 S         -7.905374    0.221996    0.019393
 S         -3.821302    1.987909   -0.005555
 C         -2.373946   -1.725608   -0.043817
 H         -8.954857    3.713010    0.002285
 H          0.450651   -2.474001   -0.032076
 C         10.490269   -1.492172   -0.036851
 C         11.418319   -0.464814   -0.055004
 C         11.103364    0.979081   -0.050484
 O          9.991053    1.500549   -0.039693
 C         12.394472    1.701649   -0.060158
 C         12.607672    3.072745   -0.057305
 C         13.927019    3.533024   -0.067139
 C         14.987823    2.620032   -0.079475
 C         14.767075    1.237836   -0.082838
 C         13.448791    0.769595   -0.073113
 C         12.873288   -0.603043   -0.075010
 C         13.627464   -1.768059   -0.097742
 C         15.055215   -1.786472   -0.114241
 N         16.218237   -1.863432   -0.127912
 C         13.080115   -3.086782   -0.110927
 N         12.683758   -4.183330   -0.123608
 H         10.899248   -2.496292   -0.034826
 H         11.763107    3.754989   -0.047557
 H         14.132704    4.599348   -0.065116
 H         16.009735    2.987639   -0.086649
 H         15.616403    0.568674   -0.092352
 C        -10.490269    1.492159    0.036798
 C        -11.418328    0.464803    0.054781
 C        -11.103375   -0.979094    0.050170
 O         -9.991066   -1.500564    0.039305
 C        -12.394483   -1.701661    0.059927
 C        -12.607686   -3.072757    0.057124
 C        -13.927035   -3.533033    0.067012
 C        -14.987837   -2.620037    0.079351
 C        -14.767085   -1.237842    0.082660
 C        -13.448800   -0.769606    0.072880
 C        -12.873301    0.603030    0.074696
 C        -13.627508    1.768028    0.097298
 C        -15.055260    1.786387    0.113807
 N        -16.218287    1.863271    0.127492
 C        -13.080215    3.086776    0.110326
 N        -12.683932    4.183352    0.122872
 H        -10.899242    2.496280    0.034851
 H        -11.763123   -3.755004    0.047365
 H        -14.132723   -4.599355    0.065026
 H        -16.009749   -2.987641    0.086570
 H        -15.616409   -0.568674    0.092182
 C          2.603106    2.522701    1.346928
 C          3.643185    3.464218    1.411511
 C          3.930532    4.138495    2.595347
 C          3.192313    3.903190    3.764434
 C          2.162411    2.959597    3.699114
 C          1.871516    2.279127    2.514081
 H          4.231419    3.679198    0.523973
 H          4.743769    4.860962    2.611019
 H          1.573460    2.747377    4.588720
 H          1.067647    1.550640    2.509801
 C          2.416487    2.623916   -1.210010
 C          1.831126    3.898826   -1.193185
 C          1.789273    4.685703   -2.342938
 C          2.332306    4.235333   -3.553659
 C          2.910387    2.960725   -3.568668
 C          2.951849    2.168037   -2.420816
 H          1.411771    4.288160   -0.270241
 H          1.327852    5.669785   -2.295977
 H          3.337759    2.577575   -4.492726
 H          3.405753    1.183547   -2.475755
 C         -2.416480   -2.624017    1.210118
 C         -1.831363   -3.899011    1.193143
 C         -1.789517   -4.685977    2.342863
 C         -2.332308   -4.235594    3.553658
 C         -2.910145   -2.960849    3.568826
 C         -2.951605   -2.168102    2.421044
 H         -1.412181   -4.288372    0.270133
 H         -1.328285   -5.670140    2.295785
 H         -3.337309   -2.577666    4.492970
 H         -3.405304   -1.183523    2.476089
 C         -2.603086   -2.522593   -1.346819
 C         -3.643099   -3.464149   -1.411478
 C         -3.930444   -4.138316   -2.595401
 C         -3.192270   -3.902858   -3.764460
 C         -2.162428   -2.959174   -3.699073
 C         -1.871543   -2.278834   -2.513986
 H         -4.231321   -3.679248   -0.523961
 H         -4.743658   -4.860804   -2.611144
 H         -1.573540   -2.746783   -4.588683
 H         -1.067746   -1.550269   -2.509654
 C          3.488949    4.659362    5.038108
 H          3.060302    5.670031    5.010275
 H          3.070317    4.150203    5.912066
 C          2.318577    5.105501   -4.788458
 H          2.339975    4.503300   -5.702730
 H          1.427550    5.741729   -4.820293
 C         -2.318709   -5.105788    4.788440
 H         -1.430196   -5.745614    4.817844
 H         -2.335178   -4.503491    5.702765
 C         -3.488645   -4.659037   -5.038190
 H         -3.074593   -4.147022   -5.912675
 H         -3.055119   -5.667692   -5.012567
 H          4.567554    4.772258    5.194696
 H          3.192301    5.770363   -4.816022
 H         -3.195090   -5.767042    4.818458
 H         -4.567086   -4.776825   -5.192132
 C         -7.017118    2.673996   -0.006296
 C         -6.560349    1.341603   -0.000143
 C          7.017119   -2.674004    0.006503
 C          6.560353   -1.341612    0.000339
 H         -5.469486   -1.289983   -0.022136
 H          5.469491    1.289978    0.022373
 O         -6.115112    3.682739   -0.020626
 O          6.115114   -3.682746    0.020913
 C         -6.617599    5.021049   -0.030178
 H         -7.224253    5.203774   -0.924476
 H         -7.211640    5.221509    0.868789
 H         -5.740380    5.667889   -0.042772
 C          6.617601   -5.021056    0.030502
 H          7.211585   -5.221561   -0.868493
 H          7.224310   -5.203737    0.924771
 H          5.740381   -5.667894    0.043181
       142
T1: Total Energy = -5191.17046822
 C         -9.047366    1.552076   -0.023667
 C         -8.377656    2.795861   -0.012507
 C         -5.190094    0.901255    0.009118
 C         -4.756686   -0.447663    0.013687
 C         -3.378063   -0.572080    0.012484
 C         -2.705003    0.660972    0.013003
 C         -1.299824    0.482162    0.012684
 C         -1.050009   -0.932222    0.033938
 C          0.236637   -1.416290    0.015065
 S         -7.879197    0.226951   -0.015950
 S         -3.792411    2.014435    0.013138
 C         -2.375962   -1.728185    0.049470
 H         -8.926538    3.729103   -0.014917
 H          0.440072   -2.482688    0.020043
 C          9.047387   -1.552025    0.023664
 C          8.377681   -2.795811    0.012462
 C          5.190113   -0.901214   -0.009009
 C          4.756701    0.447703   -0.013564
 C          3.378078    0.572116   -0.012336
 C          2.705020   -0.660938   -0.012835
 C          1.299841   -0.482130   -0.012490
 C          1.050025    0.932253   -0.033742
 C         -0.236620    1.416322   -0.014864
 S          7.879213   -0.226903    0.016056
 S          3.792432   -2.014398   -0.012992
 C          2.375976    1.728219   -0.049330
 H          8.926566   -3.729052    0.014799
 H         -0.440053    2.482721   -0.019850
 C        -10.457775    1.502567   -0.040718
 C        -11.387551    0.467081   -0.055844
 C        -11.069149   -0.978031   -0.051299
 O         -9.955302   -1.496893   -0.038461
 C        -12.357447   -1.705162   -0.064618
 C        -12.567942   -3.075890   -0.064536
 C        -13.887293   -3.539440   -0.078402
 C        -14.947688   -2.627455   -0.091884
 C        -14.728699   -1.243601   -0.092180
 C        -13.412049   -0.773120   -0.078350
 C        -12.835583    0.599870   -0.075589
 C        -13.595231    1.769072   -0.092376
 C        -15.021311    1.783514   -0.109243
 N        -16.185387    1.856697   -0.123056
 C        -13.054263    3.088664   -0.096877
 N        -12.666026    4.189073   -0.102024
 H        -10.870588    2.504475   -0.042170
 H        -11.722085   -3.756690   -0.053881
 H        -14.091267   -4.606103   -0.078682
 H        -15.969537   -2.995590   -0.102424
 H        -15.579034   -0.575678   -0.102831
 C         10.457796   -1.502509    0.040646
 C         11.387563   -0.467015    0.055790
 C         11.069141    0.978094    0.051470
 O          9.955285    1.496941    0.038802
 C         12.357430    1.705239    0.064827
 C         12.567907    3.075970    0.064962
 C         13.887253    3.539535    0.078805
 C         14.947661    2.627563    0.092047
 C         14.728691    1.243705    0.092127
 C         13.412045    0.773209    0.078325
 C         12.835598   -0.599789    0.075371
 C         13.595265   -1.768983    0.091851
 C         15.021347   -1.783407    0.108590
 N         16.185425   -1.856575    0.122289
 C         13.054319   -3.088584    0.096098
 N         12.666103   -4.189002    0.101022
 H         10.870616   -2.504413    0.042001
 H         11.722040    3.756761    0.054482
 H         14.091212    4.606201    0.079252
 H         15.969506    2.995710    0.102570
 H         15.579035    0.575792    0.102602
 C         -2.606769   -2.518201    1.356730
 C         -3.647447   -3.458673    1.424580
 C         -3.935904   -4.125875    2.611930
 C         -3.199059   -3.883587    3.780615
 C         -2.169299   -2.940102    3.711608
 C         -1.877171   -2.266241    2.523197
 H         -4.234964   -3.678481    0.537891
 H         -4.749130   -4.848084    2.630804
 H         -1.582047   -2.722227    4.600848
 H         -1.073636   -1.537351    2.516780
 C         -2.426604   -2.626951   -1.203547
 C         -1.855697   -3.908229   -1.183279
 C         -1.819332   -4.695814   -2.332613
 C         -2.353213   -4.239658   -3.545337
 C         -2.916125   -2.958295   -3.563291
 C         -2.951790   -2.164387   -2.416211
 H         -1.444463   -4.302213   -0.258734
 H         -1.370019   -5.685271   -2.283596
 H         -3.335956   -2.570739   -4.488823
 H         -3.394507   -1.174976   -2.474426
 C          2.426648    2.627017    1.203662
 C          1.855417    3.908134    1.183537
 C          1.819080    4.695691    2.332913
 C          2.353303    4.239650    3.545507
 C          2.916523    2.958400    3.563331
 C          2.952164    2.164541    2.416238
 H          1.443884    4.302038    0.259093
 H          1.369510    5.685034    2.284009
 H          3.336604    2.570913    4.488782
 H          3.395114    1.175227    2.474342
 C          2.606736    2.518154   -1.356650
 C          3.647754    3.458203   -1.424823
 C          3.936157    4.125241   -2.612299
 C          3.198904    3.883204   -3.780758
 C          2.168812    2.940078   -3.711444
 C          1.876749    2.266395   -2.522937
 H          4.235626    3.677799   -0.538318
 H          4.749676    4.847111   -2.631433
 H          1.581268    2.722350   -4.600528
 H          1.072967    1.537777   -2.516279
 C         -3.497823   -4.632012    5.058142
 H         -3.070082   -5.643135    5.035831
 H         -3.079569   -4.118463    5.929614
 C         -2.345872   -5.110720   -4.779361
 H         -2.356701   -4.509079   -5.694110
 H         -1.463006   -5.758288   -4.807337
 C          2.346082    5.110634    4.779587
 H          1.465181    5.760927    4.805776
 H          2.353154    4.508889    5.694317
 C          3.497396    4.631571   -5.058383
 H          3.082578    4.115791   -5.930191
 H          3.065917    5.641150   -5.037779
 H         -4.576674   -4.742975    5.213830
 H         -3.228002   -5.764174   -4.808858
 H          3.230210    5.761295    4.811011
 H          4.576114    4.746280   -5.212143
 C          6.991809   -2.695349   -0.000337
 C          6.520661   -1.355232   -0.000077
 C         -6.991785    2.695395    0.000336
 C         -6.520641    1.355277    0.000152
 H          5.455299    1.276404   -0.020378
 H         -5.455288   -1.276360    0.020477
 O          6.092684   -3.698448   -0.011989
 O         -6.092657    3.698492    0.011958
 C          6.589978   -5.041617   -0.014993
 H          7.196958   -5.226518   -0.907786
 H          7.181706   -5.236425    0.885916
 H          5.709466   -5.683487   -0.026051
 C         -6.589947    5.041663    0.014865
 H         -7.181644    5.236419   -0.886076
 H         -7.196956    5.226619    0.907626
 H         -5.709433    5.683530    0.025914
       142
S1: Total Energy = -5191.15328497
 C         -9.053757    1.550054   -0.005268
 C         -8.388717    2.788627    0.012231
 C         -5.191775    0.890600    0.027455
 C         -4.762079   -0.450262    0.027798
 C         -3.376442   -0.573847    0.022285
 C         -2.709373    0.656535    0.023539
 C         -1.299475    0.480718    0.017815
 C         -1.048924   -0.932339    0.035837
 C          0.239630   -1.415561    0.011987
 S         -7.885574    0.227673   -0.000912
 S         -3.800183    2.005298    0.030475
 C         -2.374057   -1.729000    0.053599
 H         -8.935803    3.723058    0.012346
 H          0.443955   -2.481756    0.014939
 C          9.053761   -1.550061    0.005454
 C          8.388717   -2.788634   -0.011970
 C          5.191781   -0.890600   -0.027429
 C          4.762086    0.450262   -0.027850
 C          3.376449    0.573850   -0.022348
 C          2.709379   -0.656532   -0.023551
 C          1.299481   -0.480716   -0.017848
 C          1.048930    0.932340   -0.035898
 C         -0.239624    1.415563   -0.012024
 S          7.885582   -0.227678    0.000932
 S          3.800188   -2.005297   -0.030413
 C          2.374062    1.729002   -0.053729
 H          8.935801   -3.723067   -0.011982
 H         -0.443946    2.481759   -0.014973
 C        -10.470909    1.499386   -0.028382
 C        -11.396402    0.468523   -0.051134
 C        -11.076792   -0.978135   -0.043745
 O         -9.962137   -1.494484   -0.025381
 C        -12.364040   -1.704560   -0.061518
 C        -12.573617   -3.075404   -0.059500
 C        -13.892491   -3.540439   -0.078092
 C        -14.953864   -2.628689   -0.098113
 C        -14.737022   -1.245195   -0.100581
 C        -13.419947   -0.771605   -0.082034
 C        -12.849500    0.598960   -0.080276
 C        -13.608028    1.769400   -0.107921
 C        -15.033591    1.784630   -0.133826
 N        -16.197927    1.856899   -0.155186
 C        -13.065489    3.087729   -0.117299
 N        -12.673994    4.187348   -0.126862
 H        -10.881967    2.502283   -0.028461
 H        -11.727127   -3.755349   -0.043714
 H        -14.095713   -4.607222   -0.076942
 H        -15.975239   -2.998194   -0.112139
 H        -15.587889   -0.578024   -0.116233
 C         10.470911   -1.499397    0.028643
 C         11.396409   -0.468537    0.051324
 C         11.076809    0.978123    0.043698
 O          9.962159    1.494476    0.025184
 C         12.364061    1.704542    0.061434
 C         12.573648    3.075384    0.059216
 C         13.892524    3.540413    0.077824
 C         14.953889    2.628659    0.098063
 C         14.737037    1.245167    0.100725
 C         13.419961    0.771582    0.082152
 C         12.849504   -0.598979    0.080555
 C         13.608023   -1.769421    0.108386
 C         15.033584   -1.784658    0.134340
 N         16.197919   -1.856934    0.155743
 C         13.065473   -3.087744    0.117932
 N         12.673967   -4.187358    0.127630
 H         10.881964   -2.502296    0.028867
 H         11.727163    3.755333    0.043269
 H         14.095753    4.607195    0.076523
 H         15.975266    2.998158    0.112107
 H         15.587898    0.577993    0.116540
 C         -2.600874   -2.521698    1.359697
 C         -3.640149   -3.463690    1.428279
 C         -3.925047   -4.133172    2.615216
 C         -3.185939   -3.891777    3.782640
 C         -2.157670   -2.946589    3.712980
 C         -1.869228   -2.270344    2.525146
 H         -4.229297   -3.682833    0.542526
 H         -4.737250   -4.856500    2.634743
 H         -1.568825   -2.729323    4.601303
 H         -1.066949   -1.540027    2.518327
 C         -2.426943   -2.623917   -1.201923
 C         -1.857668   -3.905995   -1.187166
 C         -1.824617   -4.689443   -2.339399
 C         -2.360388   -4.228224   -3.549449
 C         -2.921656   -2.946048   -3.561825
 C         -2.953832   -2.156161   -2.411914
 H         -1.445215   -4.303821   -0.264807
 H         -1.376491   -5.679642   -2.294898
 H         -3.342777   -2.554700   -4.485160
 H         -3.394922   -1.165718   -2.465506
 C          2.426966    2.624025    1.201713
 C          1.858022    3.906227    1.186756
 C          1.824990    4.689791    2.338933
 C          2.360452    4.228553    3.549088
 C          2.921400    2.946216    3.561667
 C          2.953559    2.156236    2.411843
 H          1.445807    4.304081    0.264303
 H          1.377120    5.680096    2.294277
 H          3.342265    2.554835    4.485108
 H          3.394388    1.165685    2.465580
 C          2.600855    2.521600   -1.359895
 C          3.639963    3.463748   -1.428499
 C          3.924846    4.133151   -2.615505
 C          3.185865    3.891525   -3.782939
 C          2.157752    2.946142   -3.713262
 C          1.869336    2.269991   -2.525389
 H          4.229025    3.683077   -0.542734
 H          4.736946    4.856591   -2.635058
 H          1.569033    2.728650   -4.601615
 H          1.067202    1.539516   -2.518556
 C         -3.480724   -4.642764    5.059547
 H         -3.050728   -5.652876    5.034864
 H         -3.062024   -4.129634    5.931044
 C         -2.356622   -5.094925   -4.786523
 H         -2.369243   -4.490063   -5.699110
 H         -1.474319   -5.743047   -4.818877
 C          2.356816    5.095312    4.786121
 H          1.476903    5.746761    4.816215
 H          2.364850    4.490441    5.698768
 C          3.480392    4.642540   -5.059890
 H          3.065953    4.126762   -5.931872
 H          3.045845    5.650761   -5.037232
 H         -4.559035   -4.756403    5.216979
 H         -3.239319   -5.747605   -4.816124
 H          3.241941    5.744593    4.817979
 H          4.558544    4.760757   -5.214890
 C          6.995562   -2.686704   -0.026378
 C          6.532060   -1.353339   -0.020781
 C         -6.995560    2.686700    0.026576
 C         -6.532055    1.353336    0.020857
 H          5.458346    1.280942   -0.034340
 H         -5.458337   -1.280944    0.034251
 O          6.098320   -3.694594   -0.043240
 O         -6.098320    3.694591    0.043498
 C          6.599372   -5.035556   -0.050529
 H          7.208134   -5.216995   -0.943014
 H          7.190044   -5.233774    0.850513
 H          5.720746   -5.680132   -0.065459
 C         -6.599376    5.035551    0.050923
 H         -7.190077    5.233848   -0.850083
 H         -7.208110    5.216909    0.943443
 H         -5.720751    5.680127    0.065883
