       208
S0: Total Energy = -8069.09849352
 C          1.234129   -0.696774    0.132912
 C          1.234127    0.696804   -0.132947
 C         -0.000001    1.351538   -0.242341
 C         -1.234124    0.696798   -0.132946
 C         -1.234121   -0.696780    0.132916
 C          0.000006   -1.351514    0.242308
 H         -0.000004    2.407619   -0.492912
 H          0.000010   -2.407595    0.492877
 C          2.465767   -1.476329    0.360021
 C          3.521669   -1.188210    1.179566
 S          2.671858   -3.039276   -0.431295
 C          4.526888   -2.207640    1.202493
 H          3.568459   -0.276407    1.761924
 C          4.204182   -3.290606    0.371408
 C          2.465762    1.476362   -0.360054
 C          3.521687    1.188225   -1.179563
 S          2.671828    3.039331    0.431228
 C          4.526898    2.207662   -1.202496
 H          3.568497    0.276409   -1.761896
 C          4.204166    3.290650   -0.371451
 C         -2.465764    1.476348   -0.360058
 C         -3.521681    1.188202   -1.179575
 S         -2.671847    3.039315    0.431221
 C         -4.526900    2.207632   -1.202516
 H         -3.568480    0.276384   -1.761906
 C         -4.204180    3.290623   -0.371471
 C         -2.465755   -1.476337    0.360032
 C         -3.521671   -1.188199    1.179554
 S         -2.671831   -3.039306   -0.431246
 C         -4.526882   -2.207637    1.202500
 H         -3.568474   -0.276381    1.761885
 C         -4.204158   -3.290626    0.371453
 C          5.048456    4.425184   -0.225967
 C          4.721481    5.520364    0.619996
 C          6.263192    4.447731   -0.965563
 C          5.557350    6.600911    0.737426
 H          3.798539    5.518304    1.191248
 C          7.141572    5.570990   -0.850375
 C          6.611904    3.355453   -1.824177
 C          5.165722    7.717203    1.636582
 C          6.782983    6.650470    0.006827
 C          8.368933    5.629838   -1.577765
 C          7.839405    3.400936   -2.559828
 C          5.751488    2.231625   -1.949608
 O          4.120295    7.702951    2.275751
 N          6.055242    8.796259    1.719131
 C          7.631381    7.764696    0.135639
 C          9.185606    6.760378   -1.418722
 C          8.726945    4.514823   -2.457011
 C          8.179905    2.311345   -3.411135
 C          6.125123    1.162482   -2.806450
 C          7.267763    8.891871    1.023479
 C          5.716076    9.925474    2.594025
 C          8.826246    7.810065   -0.578125
 H         10.123427    6.835728   -1.955606
 C          9.912992    4.494769   -3.207499
 C          9.379735    2.331865   -4.146567
 C          7.299155    1.194586   -3.516653
 H          5.485472    0.294239   -2.916481
 O          7.977790    9.881088    1.163996
 H          6.487741   10.046038    3.357795
 H          5.661580   10.844402    2.006088
 H          4.755431    9.711925    3.055617
 H          9.469479    8.675970   -0.466974
 C         10.235629    3.424966   -4.037698
 H         10.607713    5.324164   -3.152575
 C          9.747911    1.206781   -5.037258
 C          7.642717    0.051498   -4.396653
 H         11.156465    3.427478   -4.610261
 O         10.785968    1.202337   -5.689055
 N          8.846396    0.131760   -5.103265
 O          6.921874   -0.933040   -4.518194
 C          9.168870   -1.007112   -5.971613
 H         10.121398   -0.799457   -6.452311
 H          9.233303   -1.920181   -5.375314
 H          8.383307   -1.135248   -6.719788
 C         -5.048479    4.425151   -0.225995
 C         -4.721517    5.520336    0.619967
 C         -6.263211    4.447688   -0.965598
 C         -5.557398    6.600875    0.737394
 H         -3.798576    5.518286    1.191221
 C         -7.141603    5.570938   -0.850414
 C         -6.611910    3.355406   -1.824213
 C         -5.165783    7.717172    1.636550
 C         -6.783031    6.650420    0.006793
 C         -8.368963    5.629773   -1.577807
 C         -7.839404    3.400880   -2.559876
 C         -5.751485    2.231584   -1.949635
 O         -4.120355    7.702933    2.275718
 N         -6.055320    8.796214    1.719104
 C         -7.631445    7.764633    0.135611
 C         -9.185657    6.760296   -1.418751
 C         -8.726951    4.514763   -2.457069
 C         -8.179887    2.311288   -3.411188
 C         -6.125107    1.162437   -2.806478
 C         -7.267842    8.891811    1.023452
 C         -5.716170    9.925431    2.594001
 C         -8.826314    7.809984   -0.578149
 H        -10.123486    6.835629   -1.955625
 C         -9.912981    4.494710   -3.207584
 C         -9.379705    2.331806   -4.146639
 C         -7.299131    1.194534   -3.516693
 H         -5.485451    0.294196   -2.916500
 O         -7.977887    9.881013    1.163978
 H         -5.661677   10.844360    2.006065
 H         -6.487842   10.045987    3.357765
 H         -4.755527    9.711890    3.055599
 H         -9.469563    8.675876   -0.466988
 C        -10.235601    3.424906   -4.037788
 H        -10.607700    5.324108   -3.152680
 C         -9.747864    1.206720   -5.037334
 C         -7.642679    0.051441   -4.396694
 H        -11.156425    3.427418   -4.610371
 O        -10.785912    1.202271   -5.689146
 N         -8.846345    0.131701   -5.103328
 O         -6.921835   -0.933098   -4.518217
 C         -9.168804   -1.007174   -5.971677
 H        -10.121306   -0.799504   -6.452421
 H         -8.383208   -1.135336   -6.719812
 H         -9.233287   -1.920236   -5.375371
 C         -5.048449   -4.425161    0.225982
 C         -4.721483   -5.520341   -0.619984
 C         -6.263175   -4.447708    0.965593
 C         -5.557356   -6.600887   -0.737408
 H         -3.798547   -5.518283   -1.191245
 C         -7.141559   -5.570965    0.850414
 C         -6.611878   -3.355430    1.824211
 C         -5.165739   -7.717179   -1.636568
 C         -6.782984   -6.650443   -0.006799
 C         -8.368913   -5.629812    1.577816
 C         -7.839365   -3.400917    2.559884
 C         -5.751462   -2.231600    1.949627
 O         -4.120314   -7.702931   -2.275742
 N         -6.055268   -8.796227   -1.719120
 C         -7.631391   -7.764661   -0.135614
 C         -9.185601   -6.760339    1.418760
 C         -8.726901   -4.514809    2.457086
 C         -8.179850   -2.311329    3.411201
 C         -6.125088   -1.162456    2.806471
 C         -7.267786   -8.891834   -1.023461
 C         -5.716117   -9.925439   -2.594023
 C         -8.826256   -7.810022    0.578152
 H        -10.123427   -6.835679    1.955637
 C         -9.912921   -4.494771    3.207617
 C         -9.379660   -2.331860    4.146666
 C         -7.299105   -1.194565    3.516697
 H         -5.485441   -0.294208    2.916486
 O         -7.977825   -9.881040   -1.163986
 H         -5.661615  -10.844369   -2.006090
 H         -6.487791  -10.045997   -3.357783
 H         -4.755477   -9.711890   -3.055625
 H         -9.469500   -8.675918    0.466991
 C        -10.235544   -3.424972    4.037826
 H        -10.607630   -5.324179    3.152723
 C         -9.747822   -1.206779    5.037365
 C         -7.642657   -0.051475    4.396701
 H        -11.156361   -3.427495    4.610421
 O        -10.785862   -1.202342    5.689189
 N         -8.846315   -0.131749    5.103348
 O         -6.921823    0.933072    4.518216
 C         -9.168778    1.007122    5.971701
 H        -10.121272    0.799441    6.452455
 H         -8.383175    1.135293    6.719827
 H         -9.233277    1.920183    5.375395
 C          5.048481   -4.425131    0.225915
 C          4.721533   -5.520290   -0.620087
 C          6.263196   -4.447696    0.965544
 C          5.557405   -6.600835   -0.737518
 H          3.798609   -5.518215   -1.191368
 C          7.141581   -5.570951    0.850355
 C          6.611883   -3.355438    1.824195
 C          5.165804   -7.717105   -1.636713
 C          6.783016   -6.650413   -0.006881
 C          8.368920   -5.629817    1.577780
 C          7.839367   -3.400935    2.559875
 C          5.751460   -2.231616    1.949632
 O          4.120400   -7.702833   -2.275920
 N          6.055322   -8.796163   -1.719254
 C          7.631414   -7.764639   -0.135690
 C          9.185592   -6.760359    1.418743
 C          8.726911   -4.514818    2.457055
 C          8.179844   -2.311361    3.411212
 C          6.125073   -1.162491    2.806506
 C          7.267821   -8.891793   -1.023566
 C          5.716182   -9.925357   -2.594184
 C          8.826255   -7.810028    0.578114
 H         10.123393   -6.835725    1.955660
 C          9.912943   -4.494775    3.207567
 C          9.379658   -2.331893    4.146670
 C          7.299088   -1.194607    3.516734
 H          5.485418   -0.294251    2.916540
 O          7.977851   -9.881007   -1.164084
 H          6.487872  -10.045907   -3.357930
 H          5.661661  -10.844298   -2.006269
 H          4.755553   -9.711794   -3.055804
 H          9.469486   -8.675935    0.466968
 C         10.235559   -3.424988    4.037795
 H         10.607670   -5.324165    3.152636
 C          9.747810   -1.206828    5.037394
 C          7.642628   -0.051536    4.396765
 H         11.156383   -3.427509    4.610377
 O         10.785852   -1.202395    5.689216
 N          8.846292   -0.131810    5.103403
 O          6.921780    0.932997    4.518311
 C          9.168744    1.007045    5.971782
 H         10.121263    0.799383    6.452495
 H          9.233186    1.920127    5.375503
 H          8.383164    1.135162    6.719943
       208
T1: Total Energy = -8069.04153309
 C          1.243424   -0.698811    0.135508
 C          1.238392    0.697639   -0.118076
 C          0.001280    1.348041   -0.221171
 C         -1.230058    0.687749   -0.118996
 C         -1.225778   -0.708922    0.136337
 C          0.012502   -1.358906    0.240758
 H         -0.003289    2.405980   -0.463585
 H          0.018271   -2.415903    0.487058
 C          2.477958   -1.475700    0.355849
 C          3.533680   -1.189937    1.176498
 S          2.688677   -3.031926   -0.447320
 C          4.542512   -2.205904    1.190699
 H          3.578039   -0.282279    1.765451
 C          4.222649   -3.283829    0.352028
 C          2.466118    1.484036   -0.338901
 C          3.526470    1.203882   -1.155911
 S          2.660401    3.047048    0.455631
 C          4.525037    2.229641   -1.174540
 H          3.580560    0.293613   -1.739984
 C          4.193351    3.309072   -0.342317
 C         -2.463150    1.464088   -0.347108
 C         -3.511751    1.179230   -1.178064
 S         -2.680911    3.019502    0.455214
 C         -4.520249    2.195170   -1.200392
 H         -3.549693    0.273154   -1.769872
 C         -4.207694    3.272259   -0.357847
 C         -2.452930   -1.492154    0.355754
 C         -3.544188   -1.184520    1.135611
 S         -2.625310   -3.083529   -0.365000
 C         -4.529574   -2.211599    1.171205
 H         -3.618728   -0.252176    1.681162
 C         -4.173352   -3.319293    0.403745
 C          5.030403    4.448319   -0.192104
 C          4.694786    5.539451    0.655700
 C          6.246729    4.479937   -0.928774
 C          5.523799    6.624744    0.777671
 H          3.770587    5.530378    1.224843
 C          7.117840    5.608351   -0.809077
 C          6.604182    3.391755   -1.789059
 C          5.123447    7.736361    1.678819
 C          6.750689    6.683576    0.049864
 C          8.346365    5.676536   -1.533696
 C          7.832940    3.446605   -2.521941
 C          5.751201    2.262814   -1.918832
 O          4.076819    7.713966    2.315786
 N          6.006016    8.820711    1.765807
 C          7.591836    7.802765    0.183113
 C          9.155519    6.811850   -1.370405
 C          8.713251    4.565782   -2.414678
 C          8.182050    2.361126   -3.375008
 C          6.133328    1.197972   -2.777212
 C          7.219421    8.925472    1.072997
 C          5.658093    9.945593    2.642846
 C          8.787828    7.857299   -0.528105
 H         10.093917    6.894426   -1.905222
 C          9.901022    4.554815   -3.162588
 C          9.383247    2.390871   -4.107927
 C          7.308602    1.239092   -3.484895
 H          5.499384    0.325992   -2.890591
 O          7.923127    9.918598    1.217539
 H          6.426205   10.067556    3.409986
 H          5.601444   10.865972    2.057434
 H          4.696763    9.725987    3.100162
 H          9.425355    8.726984   -0.413659
 C         10.232080    3.488992   -3.994634
 H         10.590511    5.388317   -3.104162
 C          9.760164    1.270254   -5.000628
 C          7.661100    0.100222   -4.366876
 H         11.154129    3.498615   -4.565172
 O         10.799376    1.273982   -5.650545
 N          8.865606    0.189681   -5.070869
 O          6.946648   -0.888513   -4.492063
 C          9.196901   -0.945059   -5.941308
 H         10.150134   -0.731301   -6.417922
 H          9.263596   -1.859450   -5.347333
 H          8.414796   -1.074931   -6.692821
 C         -5.056541    4.402950   -0.209899
 C         -4.739323    5.492474    0.647010
 C         -6.265361    4.427673   -0.959092
 C         -5.579176    6.569672    0.765990
 H         -3.820941    5.488762    1.225538
 C         -7.147888    5.547454   -0.842171
 C         -6.603978    3.341176   -1.829094
 C         -5.197576    7.680411    1.676352
 C         -6.799153    6.621293    0.026115
 C         -8.369611    5.608452   -1.578818
 C         -7.825847    3.388777   -2.573878
 C         -5.739159    2.221051   -1.956859
 O         -4.156729    7.664433    2.322883
 N         -6.090887    8.756125    1.760348
 C         -7.651730    7.732071    0.156832
 C         -9.190677    6.735478   -1.417635
 C         -8.717504    4.499190   -2.469320
 C         -8.156462    2.304818   -3.436162
 C         -6.102853    1.157515   -2.824758
 C         -7.298411    8.853347    1.056306
 C         -5.761738    9.879701    2.646278
 C         -8.840964    7.779638   -0.566129
 H        -10.124454    6.812383   -1.961306
 C         -9.897624    4.481379   -3.229095
 C         -9.350701    2.327342   -4.180621
 C         -7.271523    1.191644   -3.543657
 H         -5.459925    0.291934   -2.936635
 O         -8.012640    9.839173    1.199072
 H         -5.705645   10.803202    2.065707
 H         -6.539483    9.992128    3.405093
 H         -4.803917    9.665546    3.113434
 H         -9.487515    8.642886   -0.453520
 C        -10.210670    3.417004   -4.069949
 H        -10.595241    5.308276   -3.173254
 C         -9.708730    1.207851   -5.082500
 C         -7.604817    0.054296   -4.435081
 H        -11.127110    3.421234   -4.649503
 O        -10.741751    1.205314   -5.742178
 N         -8.803488    0.135997   -5.149778
 O         -6.879583   -0.926741   -4.558812
 C         -9.116034   -0.997347   -6.028972
 H        -10.066409   -0.789710   -6.513926
 H         -8.325397   -1.116545   -6.773275
 H         -9.180444   -1.915228   -5.440135
 C         -4.996703   -4.484045    0.275309
 C         -4.640773   -5.593002   -0.492794
 C         -6.255917   -4.482083    0.993791
 C         -5.478343   -6.705485   -0.584630
 H         -3.703418   -5.617527   -1.038625
 C         -7.114502   -5.617463    0.902867
 C         -6.640838   -3.370517    1.783042
 C         -5.049108   -7.850004   -1.413317
 C         -6.717459   -6.734171    0.106173
 C         -8.363637   -5.654824    1.595770
 C         -7.888651   -3.401476    2.477164
 C         -5.790849   -2.207882    1.893627
 O         -3.979966   -7.850888   -2.020921
 N         -5.923233   -8.942914   -1.475150
 C         -7.552627   -7.866307    0.004817
 C         -9.179132   -6.828490    1.461960
 C         -8.754436   -4.532089    2.391392
 C         -8.274412   -2.278416    3.269690
 C         -6.198591   -1.131509    2.671500
 C         -7.153543   -9.022916   -0.811647
 C         -5.544203  -10.105141   -2.287054
 C         -8.784332   -7.895351    0.692271
 H        -10.130101   -6.885308    1.975971
 C         -9.994127   -4.493476    3.114816
 C         -9.507025   -2.285213    3.967449
 C         -7.422999   -1.154414    3.356593
 H         -5.584763   -0.244159    2.770855
 O         -7.850982  -10.030230   -0.924566
 H         -5.484344  -10.994309   -1.655145
 H         -6.297552  -10.277877   -3.059070
 H         -4.578231   -9.894223   -2.738848
 H         -9.406903   -8.777768    0.596725
 C        -10.354454   -3.405650    3.875998
 H        -10.671533   -5.336578    3.067322
 C         -9.918674   -1.135051    4.789305
 C         -7.808077    0.015005    4.167261
 H        -11.293446   -3.389170    4.417480
 O        -10.983619   -1.117741    5.405141
 N         -9.032186   -0.048235    4.838514
 O         -7.099096    1.015974    4.264919
 C         -9.395617    1.123200    5.644360
 H        -10.354857    0.918825    6.113200
 H         -8.629570    1.301899    6.402264
 H         -9.464245    2.006456    5.004887
 C          5.070924   -4.414147    0.196952
 C          4.746562   -5.504461   -0.656259
 C          6.287005   -4.437329    0.934275
 C          5.586407   -6.580836   -0.783032
 H          3.822495   -5.502052   -1.225677
 C          7.169603   -5.556217    0.809231
 C          6.633017   -3.350007    1.800312
 C          5.197403   -7.692136   -1.689542
 C          6.813628   -6.630816   -0.055159
 C          8.398616   -5.615466    1.533785
 C          7.862172   -3.395915    2.533156
 C          5.768385   -2.230626    1.935718
 O          4.150833   -7.677106   -2.326777
 N          6.090757   -8.767239   -1.781323
 C          7.666216   -7.740660   -0.193848
 C          9.219416   -6.741562    1.364921
 C          8.754001   -4.505395    2.420348
 C          8.200050   -2.311161    3.391654
 C          6.139263   -1.166407    2.799828
 C          7.305383   -8.862696   -1.089371
 C          5.754077   -9.891590   -2.663433
 C          8.862598   -7.786490    0.517297
 H         10.158592   -6.817136    1.899407
 C          9.941578   -4.485897    3.168388
 C          9.401629   -2.332010    4.124245
 C          7.314887   -1.198920    3.507360
 H          5.496280   -0.301652    2.917653
 O          8.019453   -9.847641   -1.238996
 H          6.521410  -10.000236   -3.433388
 H          5.710295  -10.815586   -2.082677
 H          4.788902   -9.681242   -3.116985
 H          9.509058   -8.648985    0.398588
 C         10.261711   -3.420775    4.005578
 H         10.639523   -5.312053    3.106043
 C          9.767235   -1.211797    5.022116
 C          7.655588   -0.060926    4.395075
 H         11.183839   -3.423689    4.576053
 O         10.806746   -1.207717    5.671563
 N          8.861433   -0.140993    5.097908
 O          6.930595    0.919397    4.525773
 C          9.181273    0.993001    5.973583
 H         10.137782    0.787767    6.447373
 H          9.236308    1.911098    5.384156
 H          8.399165    1.110064    6.727212
       208
S1: Total Energy = -8069.02349908
 C          1.256293   -0.708784    0.011948
 C          1.248762    0.722982   -0.096329
 C          0.010188    1.372521   -0.127427
 C         -1.219270    0.698644   -0.111295
 C         -1.213230   -0.731801    0.025378
 C          0.031437   -1.381319    0.039357
 H          0.001604    2.445965   -0.283193
 H          0.042507   -2.454407    0.195706
 C          2.483278   -1.487615    0.192246
 C          3.561014   -1.206809    1.001399
 S          2.659397   -3.056546   -0.589692
 C          4.547839   -2.234818    1.018176
 H          3.619893   -0.300905    1.590521
 C          4.201296   -3.317174    0.192102
 C          2.463741    1.519127   -0.265986
 C          3.577971    1.237930   -1.025679
 S          2.582414    3.116138    0.473303
 C          4.546077    2.283200   -1.035345
 H          3.676549    0.318254   -1.587178
 C          4.145958    3.385464   -0.261065
 C         -2.440280    1.464092   -0.329579
 C         -3.535829    1.122016   -1.106257
 S         -2.614343    3.081660    0.339130
 C         -4.525900    2.134972   -1.176687
 H         -3.594885    0.178386   -1.631583
 C         -4.172910    3.277736   -0.434148
 C         -2.421825   -1.508826    0.248128
 C         -3.533323   -1.160759    0.997693
 S         -2.563630   -3.159572   -0.349771
 C         -4.511057   -2.187235    1.097272
 H         -3.612908   -0.206570    1.501883
 C         -4.129571   -3.347518    0.414689
 C          4.945299    4.548401   -0.111453
 C          4.538891    5.661015    0.675607
 C          6.197403    4.583635   -0.789587
 C          5.332558    6.771717    0.794323
 H          3.588111    5.648597    1.198995
 C          7.031222    5.738882   -0.671438
 C          6.625849    3.473810   -1.588762
 C          4.858009    7.906643    1.629231
 C          6.592592    6.835915    0.125112
 C          8.293136    5.813529   -1.336637
 C          7.889169    3.534254   -2.258781
 C          5.810060    2.318238   -1.719123
 O          3.781255    7.877347    2.213038
 N          5.705829    9.017176    1.715719
 C          7.395002    7.982638    0.254031
 C          9.062191    6.977404   -1.179335
 C          8.733719    4.680394   -2.151515
 C          8.310219    2.425919   -3.047487
 C          6.262678    1.231691   -2.510084
 C          6.948293    9.129316    1.077617
 C          5.285255   10.165559    2.528756
 C          8.623855    8.043517   -0.399552
 H         10.023974    7.066466   -1.669542
 C          9.959114    4.672360   -2.836084
 C          9.548067    2.459231   -3.717923
 C          7.474017    1.277367   -3.156161
 H          5.659946    0.337548   -2.620776
 O          7.617248   10.146862    1.213132
 H          6.015646   10.343654    3.321127
 H          5.225226   11.058516    1.902663
 H          4.312324    9.933620    2.954299
 H          9.230960    8.935205   -0.289291
 C         10.361073    3.583655   -3.605803
 H         10.623255    5.525996   -2.776473
 C         10.000346    1.313904   -4.542337
 C          7.903318    0.112057   -3.968002
 H         11.311654    3.596575   -4.127302
 O         11.071915    1.320575   -5.136300
 N          9.138410    0.206835   -4.613735
 O          7.221907   -0.900979   -4.082858
 C          9.544365   -0.952717   -5.417913
 H         10.510720   -0.727666   -5.861699
 H          9.613804   -1.838056   -4.781700
 H          8.800934   -1.140243   -6.195823
 C         -5.009122    4.414854   -0.335551
 C         -4.649873    5.568321    0.416558
 C         -6.256593    4.382519   -1.029552
 C         -5.484324    6.651167    0.490913
 H         -3.704330    5.608564    0.947793
 C         -7.131897    5.508963   -0.955271
 C         -6.634926    3.235490   -1.800140
 C         -5.058470    7.831286    1.289828
 C         -6.741110    6.646014   -0.189671
 C         -8.389837    5.516134   -1.633314
 C         -7.890368    3.230791   -2.485894
 C         -5.778104    2.106022   -1.886493
 O         -3.982688    7.863833    1.874752
 N         -5.950840    8.907985    1.339547
 C         -7.585965    7.763881   -0.102596
 C         -9.203115    6.655551   -1.518333
 C         -8.779288    4.344928   -2.417411
 C         -8.258143    2.087595   -3.250520
 C         -6.174454    0.985696   -2.656948
 C         -7.190439    8.952155    0.688207
 C         -5.582285   10.096073    2.120435
 C         -8.811495    7.758985   -0.768123
 H        -10.162537    6.693839   -2.019374
 C         -9.998045    4.269250   -3.110575
 C         -9.490064    2.053949   -3.933125
 C         -7.376768    0.972479   -3.323747
 H         -5.538299    0.111593   -2.736271
 O         -7.898974    9.946760    0.784645
 H         -5.524128   10.967247    1.463811
 H         -6.340911   10.283836    2.883134
 H         -4.617116    9.904475    2.582212
 H         -9.451852    8.630530   -0.689466
 C        -10.349294    3.145603   -3.855353
 H        -10.697451    5.095684   -3.076588
 C         -9.887582    0.870420   -4.733976
 C         -7.744518   -0.223802   -4.123165
 H        -11.295547    3.105959   -4.383139
 O        -10.952673    0.822151   -5.336822
 N         -8.980625   -0.200202   -4.772883
 O         -7.009922   -1.199292   -4.223659
 C         -9.330612   -1.395077   -5.552188
 H        -10.314552   -1.233220   -5.984717
 H         -8.589363   -1.553380   -6.338846
 H         -9.339071   -2.270479   -4.899227
 C         -4.939105   -4.519871    0.358052
 C         -4.553373   -5.683004   -0.329129
 C         -6.195345   -4.477193    1.053822
 C         -5.365711   -6.804118   -0.354366
 H         -3.606408   -5.728375   -0.857851
 C         -7.041571   -5.630088    1.035753
 C         -6.606023   -3.305539    1.760935
 C         -4.913044   -7.996056   -1.088573
 C         -6.619206   -6.798560    0.325074
 C         -8.299280   -5.631991    1.716041
 C         -7.866189   -3.297092    2.441085
 C         -5.776517   -2.140100    1.796557
 O         -3.835317   -8.039891   -1.686435
 N         -5.778206   -9.100351   -1.077047
 C         -7.440224   -7.943881    0.297648
 C         -9.088654   -6.807059    1.660304
 C         -8.719194   -4.442795    2.431198
 C         -8.274416   -2.117558    3.140224
 C         -6.206630   -1.000081    2.487204
 C         -7.021621   -9.147690   -0.425981
 C         -5.376422  -10.313887   -1.793396
 C         -8.670948   -7.929741    0.971224
 H        -10.045935   -6.840678    2.166039
 C         -9.951265   -4.366834    3.127003
 C         -9.513659   -2.086775    3.817988
 C         -7.428447   -0.975266    3.148619
 H         -5.597519   -0.103985    2.523247
 O         -7.699351  -10.175838   -0.484881
 H         -5.339827  -11.158658   -1.101332
 H         -6.103574  -10.543105   -2.576631
 H         -4.395791  -10.133438   -2.226837
 H         -9.286716   -8.822240    0.938022
 C        -10.336194   -3.222430    3.800366
 H        -10.619221   -5.219548    3.139947
 C         -9.951359   -0.886644    4.536670
 C         -7.837346    0.245633    3.853319
 H        -11.283010   -3.181983    4.328065
 O        -11.025343   -0.818185    5.139521
 N         -9.073643    0.215062    4.508478
 O         -7.150441    1.271325    3.887502
 C         -9.465645    1.439783    5.210165
 H        -10.436468    1.262683    5.666466
 H         -8.723237    1.686289    5.973525
 H         -9.521459    2.272727    4.504581
 C          5.033442   -4.455960    0.031628
 C          4.687386   -5.544416   -0.816378
 C          6.256387   -4.490269    0.760133
 C          5.512981   -6.630052   -0.946067
 H          3.759364   -5.532341   -1.379160
 C          7.121000   -5.621880    0.634246
 C          6.625774   -3.403236    1.618716
 C          5.105003   -7.737961   -1.850615
 C          6.743639   -6.694106   -0.224591
 C          8.353734   -5.696739    1.351972
 C          7.858619   -3.464621    2.343005
 C          5.781298   -2.269931    1.754434
 O          4.058455   -7.704424   -2.485885
 N          5.980137   -8.827003   -1.940907
 C          7.578057   -7.816550   -0.364127
 C          9.155766   -6.835844    1.182833
 C          8.731548   -4.588745    2.231255
 C          8.219045   -2.380340    3.192470
 C          6.174112   -1.205523    2.605998
 C          7.196305   -8.937119   -1.254608
 C          5.622540   -9.949727   -2.817683
 C          8.777561   -7.877970    0.340942
 H         10.096528   -6.924619    1.712281
 C          9.922805   -4.584296    2.972902
 C          9.424421   -2.416339    3.919353
 C          7.354705   -1.253151    3.305621
 H          5.546970   -0.329126    2.722869
 O          7.897070   -9.930947   -1.403315
 H          6.380859  -10.067816   -3.595110
 H          5.574808  -10.871352   -2.233810
 H          4.655190   -9.730116   -3.262053
 H          9.409739   -8.750926    0.222041
 C         10.265129   -3.519336    3.802949
 H         10.606952   -5.421912    2.912042
 C          9.812927   -1.296149    4.809008
 C          7.720469   -0.113040    4.182580
 H         11.190013   -3.534978    4.368656
 O         10.855282   -1.306091    5.452410
 N          8.925570   -0.209539    4.882235
 O          7.013028    0.880922    4.303918
 C          9.268564    0.924493    5.749747
 H         10.217313    0.700384    6.230450
 H          9.349548    1.835684    5.152591
 H          8.485313    1.066420    6.497640
