       142
S0: Total Energy = -5588.11136772
 C         -8.978716   -1.989113    0.219579
 C         -8.192013   -3.151298    0.309003
 C         -5.174097   -1.005860    0.257375
 C         -4.792859    0.341842    0.250088
 C         -3.386244    0.521257    0.210603
 C         -2.711090   -0.684719    0.189556
 C         -1.283076   -0.494799    0.086731
 C         -1.065410    0.904441    0.001344
 C          0.221550    1.410887   -0.092415
 S         -7.932815   -0.563745    0.156093
 S         -3.754257   -2.061813    0.215607
 C         -2.398001    1.688655    0.058191
 H         -8.638577   -4.139168    0.355850
 H          0.403301    2.480052   -0.150362
 C          8.980006    1.986891   -0.250028
 C          8.194542    3.147908   -0.362136
 C          5.174965    1.005287   -0.284145
 C          4.793431   -0.342244   -0.271775
 C          3.386848   -0.521214   -0.232258
 C          2.711791    0.684866   -0.214253
 C          1.283739    0.495175   -0.110645
 C          1.066053   -0.904032   -0.024115
 C         -0.220908   -1.410500    0.068856
 S          7.932843    0.563648   -0.164890
 S          3.755344    2.061642   -0.245004
 C          2.398621   -1.688330   -0.078716
 H          8.642099    4.134347   -0.426416
 H         -0.402662   -2.479662    0.126801
 C        -10.388969   -2.084624    0.185491
 C        -11.418008   -1.161179    0.107963
 C        -11.257407    0.306609    0.047000
 O        -10.214144    0.952528    0.050605
 C        -12.619983    0.882720   -0.017528
 C        -12.969347    2.225015   -0.086338
 C        -14.322446    2.525667   -0.136376
 C        -15.281168    1.504204   -0.116774
 C        -14.929736    0.161783   -0.048240
 C        -13.567074   -0.155281    0.002279
 C        -12.849410   -1.455820    0.078566
 C        -13.479733   -2.691119    0.110069
 C        -14.898005   -2.852303    0.074395
 N        -16.048556   -3.036876    0.047991
 C        -12.802704   -3.946315    0.180127
 N        -12.302457   -4.997802    0.237377
 H        -10.694676   -3.123974    0.232325
 H        -12.220994    3.010113   -0.101240
 H        -15.723060   -0.572773   -0.037248
 C         10.390416    2.081431   -0.218148
 C         11.418145    1.159066   -0.115277
 C         11.255343   -0.304986    0.003341
 O         10.211612   -0.950070    0.013725
 C         12.616348   -0.878379    0.110618
 C         12.963073   -2.216161    0.247135
 C         14.314926   -2.514809    0.331033
 C         15.275072   -1.495872    0.277655
 C         14.926297   -0.158028    0.140353
 C         13.564888    0.156998    0.055026
 C         12.849945    1.452665   -0.094198
 C         13.482725    2.682842   -0.196553
 C         14.901071    2.843676   -0.162194
 N         16.051834    3.027428   -0.139606
 C         12.808379    3.931700   -0.352786
 N         12.310297    4.977734   -0.482653
 H         10.697410    3.119044   -0.288853
 H         12.213617   -2.999275    0.288192
 H         15.720534    0.574869    0.106905
 C         -2.720070    2.424089   -1.262984
 C         -3.749060    3.378218   -1.309835
 C         -4.103878    3.995461   -2.506369
 C         -3.452155    3.684660   -3.708382
 C         -2.435388    2.725937   -3.661693
 C         -2.074340    2.105869   -2.463427
 H         -4.278339    3.647227   -0.402413
 H         -4.906088    4.730170   -2.505827
 H         -1.912211    2.454541   -4.575892
 H         -1.282297    1.364827   -2.475811
 C         -2.325090    2.623116    1.284679
 C         -1.875881    3.945082    1.167588
 C         -1.708824    4.749387    2.296285
 C         -1.979720    4.267726    3.582183
 C         -2.414871    2.940419    3.697584
 C         -2.581556    2.133050    2.573601
 H         -1.657805    4.358262    0.188113
 H         -1.360627    5.772111    2.170191
 H         -2.624567    2.528860    4.682457
 H         -2.910403    1.105940    2.704438
 C          2.327023   -2.624692   -1.303841
 C          1.877498   -3.946412   -1.185154
 C          1.711656   -4.752518   -2.312741
 C          1.984135   -4.272978   -3.599102
 C          2.419588   -2.945920   -3.716132
 C          2.585057   -2.136745   -2.593253
 H          1.658235   -4.357987   -0.205267
 H          1.363171   -5.774990   -2.185403
 H          2.630470   -2.535965   -4.701421
 H          2.914078   -1.109863   -2.725406
 C          2.719454   -2.421830    1.243852
 C          3.748412   -3.375873    1.292989
 C          4.102085   -3.991462    2.490719
 C          3.449203   -3.679029    3.691672
 C          2.432490   -2.720355    3.642702
 C          2.072577   -2.101948    2.443240
 H          4.278632   -3.645997    0.386451
 H          4.904320   -4.726143    2.491960
 H          1.908451   -2.447692    4.556032
 H          1.280515   -1.360900    2.453856
 C         -3.826065    4.376042   -4.998257
 H         -3.413752    5.392951   -5.038863
 H         -3.444816    3.832232   -5.868323
 C         -1.831010    5.149844    4.799209
 H         -1.480223    4.579984    5.666373
 H         -1.123304    5.965219    4.618025
 C          1.836733   -5.157038   -4.814878
 H          1.128781   -5.972083   -4.633177
 H          1.486941   -4.588551   -5.683344
 C          3.821772   -4.368708    4.982848
 H          3.441335   -3.822675    5.851883
 H          3.407671   -5.384822    5.025262
 H         -4.913111    4.466146   -5.103124
 H         -2.790114    5.605963    5.078597
 H          2.796124   -5.613651   -5.092468
 H          4.908640   -4.460503    5.088016
 C          6.824432    2.917993   -0.386711
 C          6.495181    1.559001   -0.294300
 C         -6.822082   -2.920729    0.333859
 C         -6.494026   -1.560129    0.262688
 F         16.567020   -1.841677    0.363796
 F         14.733799   -3.779918    0.464776
 F        -16.574464    1.852157   -0.166587
 F        -14.743946    3.795185   -0.203954
 H          6.084042    3.705188   -0.475140
 H         -6.080810   -3.708785    0.405633
 O          5.736297   -1.325180   -0.225969
 O         -5.736491    1.324110    0.207717
 C          6.013307   -2.009202   -1.465889
 H          5.142333   -2.579551   -1.799246
 H          6.307553   -1.294855   -2.241977
 H          6.844932   -2.681084   -1.251349
 C         -6.008742    2.009220    1.448085
 H         -6.297521    1.295282    2.226596
 H         -5.137450    2.581954    1.776426
 H         -6.842972    2.678886    1.236766
       142
T1: Total Energy = -5588.06756602
 C         -8.952832    1.989530   -0.221970
 C         -8.155438    3.158573   -0.314862
 C         -5.158919    1.014431   -0.267500
 C         -4.768934   -0.354733   -0.235728
 C         -3.383746   -0.529138   -0.184678
 C         -2.688542    0.688885   -0.188617
 C         -1.288253    0.497685   -0.097170
 C         -1.063285   -0.915231    0.006820
 C          0.213340   -1.418211    0.094967
 S         -7.917447    0.560615   -0.155870
 S         -3.732511    2.074992   -0.254118
 C         -2.398386   -1.696239   -0.024507
 H         -8.603099    4.145508   -0.363002
 H          0.397337   -2.486027    0.165429
 C          8.952795   -1.989531    0.221380
 C          8.155323   -3.158641    0.313068
 C          5.158843   -1.014506    0.264532
 C          4.768882    0.354699    0.232767
 C          3.383714    0.529128    0.181438
 C          2.688493   -0.688909    0.185185
 C          1.288231   -0.497718    0.093528
 C          1.063259    0.915198   -0.010429
 C         -0.213366    1.418174   -0.098622
 S          7.917446   -0.560607    0.155005
 S          3.732420   -2.075045    0.250779
 C          2.398344    1.696222    0.021123
 H          8.602962   -4.145588    0.361149
 H         -0.397362    2.485992   -0.169050
 C        -10.359503    2.091536   -0.186743
 C        -11.394445    1.164403   -0.104472
 C        -11.233994   -0.305217   -0.034711
 O        -10.189571   -0.949719   -0.037337
 C        -12.595163   -0.882265    0.037825
 C        -12.945380   -2.222950    0.117381
 C        -14.299528   -2.522602    0.173958
 C        -15.255147   -1.500214    0.149983
 C        -14.902048   -0.157320    0.070354
 C        -13.540142    0.158217    0.013260
 C        -12.818960    1.456488   -0.075391
 C        -13.450566    2.697824   -0.118628
 C        -14.867043    2.859194   -0.081176
 N        -16.018403    3.043419   -0.053663
 C        -12.775553    3.951170   -0.204762
 N        -12.278536    5.004234   -0.275671
 H        -10.664979    3.130240   -0.236095
 H        -12.197950   -3.008912    0.135640
 H        -15.694678    0.577981    0.056624
 C         10.359504   -2.091501    0.187761
 C         11.394567   -1.164325    0.107277
 C         11.234226    0.305276    0.036839
 O         10.189794    0.949770    0.037419
 C         12.595482    0.882271   -0.034390
 C         12.945797    2.222910   -0.114286
 C         14.300017    2.522541   -0.169237
 C         15.255606    1.500175   -0.143350
 C         14.902409    0.157325   -0.063372
 C         13.540429   -0.158199   -0.007947
 C         12.819108   -1.456411    0.080585
 C         13.450577   -2.697752    0.125983
 C         14.867076   -2.859328    0.090347
 N         16.018429   -3.043815    0.064291
 C         12.775327   -3.950911    0.212907
 N         12.278016   -5.003782    0.284644
 H         10.664939   -3.130221    0.237052
 H         12.198388    3.008857   -0.133959
 H         15.695030   -0.577954   -0.048152
 C         -2.713242   -2.407184    1.311487
 C         -3.747064   -3.354878    1.381069
 C         -4.095866   -3.949223    2.590652
 C         -3.433797   -3.620737    3.782492
 C         -2.412923   -2.667802    3.712456
 C         -2.057898   -2.069871    2.501284
 H         -4.285158   -3.635130    0.482371
 H         -4.901659   -4.679642    2.608719
 H         -1.882440   -2.382889    4.618191
 H         -1.262696   -1.332091    2.496001
 C         -2.342622   -2.647584   -1.238250
 C         -1.905755   -3.972096   -1.105165
 C         -1.753465   -4.792712   -2.223892
 C         -2.027415   -4.325494   -3.514701
 C         -2.449735   -2.995576   -3.645790
 C         -2.601096   -2.171336   -2.531854
 H         -1.686263   -4.374266   -0.121516
 H         -1.414953   -5.817102   -2.086164
 H         -2.660967   -2.595144   -4.634804
 H         -2.919388   -1.142645   -2.676152
 C          2.342332    2.647557    1.234857
 C          1.905558    3.972093    1.101698
 C          1.753033    4.792684    2.220414
 C          2.026653    4.325416    3.511275
 C          2.448891    2.995478    3.642429
 C          2.600482    2.171264    2.528509
 H          1.686314    4.374295    0.118008
 H          1.414597    5.817092    2.082636
 H          2.659880    2.595013    4.631481
 H          2.918727    1.142563    2.672849
 C          2.713393    2.407167   -1.314823
 C          3.747014    3.355086   -1.384194
 C          4.095987    3.949447   -2.593726
 C          3.434281    3.620762   -3.785707
 C          2.413585    2.667613   -3.715872
 C          2.058392    2.069671   -2.504762
 H          4.284806    3.635534   -0.485376
 H          4.901626    4.680038   -2.611632
 H          1.883383    2.382542   -4.621724
 H          1.263338    1.331729   -2.499627
 C         -3.802506   -4.287233    5.086700
 H         -3.399684   -5.307311    5.139620
 H         -3.408065   -3.733214    5.944273
 C         -1.894840   -5.225571   -4.720203
 H         -1.548729   -4.670232   -5.598502
 H         -1.190610   -6.042665   -4.533630
 C          1.893829    5.225466    4.716770
 H          1.189645    6.042569    4.530064
 H          1.547528    4.670110    5.594982
 C          3.803098    4.287314   -5.089856
 H          3.410066    3.732474   -5.947548
 H          3.398899    5.306815   -5.143442
 H         -4.889351   -4.364979    5.202526
 H         -2.859355   -5.679495   -4.983885
 H          2.858292    5.679378    4.980666
 H          4.889920    4.366513   -5.204865
 C          6.795592   -2.926744    0.336837
 C          6.460191   -1.556659    0.266079
 C         -6.795713    2.926647   -0.339595
 C         -6.460290    1.556605   -0.268489
 F         16.550370    1.844185   -0.198394
 F         14.722069    3.792580   -0.247641
 F        -16.549837   -1.844251    0.206548
 F        -14.721490   -3.792682    0.252171
 H          6.052908   -3.713926    0.408953
 H         -6.053074    3.713780   -0.412696
 O          5.715981    1.331810    0.179275
 O         -5.715889   -1.331984   -0.182062
 C          6.032704    1.992260    1.424156
 H          5.180418    2.577339    1.779152
 H          6.325684    1.261541    2.184985
 H          6.875507    2.647287    1.201897
 C         -6.033453   -1.991670   -1.427141
 H         -6.327230   -1.260524   -2.187251
 H         -5.181283   -2.576292   -1.783185
 H         -6.875905   -2.647071   -1.204653
       142
S1: Total Energy = -5588.05225784
 C         -8.954168    1.993467   -0.216184
 C         -8.162213    3.158151   -0.304214
 C         -5.156399    1.010924   -0.265296
 C         -4.771463   -0.351779   -0.249994
 C         -3.380596   -0.527995   -0.196203
 C         -2.689506    0.687934   -0.181551
 C         -1.286567    0.496830   -0.087686
 C         -1.062507   -0.916846    0.000632
 C          0.214975   -1.420549    0.088846
 S         -7.917811    0.564786   -0.158046
 S         -3.734460    2.071303   -0.229852
 C         -2.397046   -1.696848   -0.046256
 H         -8.608092    4.146108   -0.347693
 H          0.399407   -2.488822    0.148440
 C          8.955982   -1.991754    0.242137
 C          8.165543   -3.155880    0.348661
 C          5.157229   -1.012214    0.283723
 C          4.771832    0.350178    0.263382
 C          3.380936    0.525758    0.208910
 C          2.690090   -0.690275    0.196878
 C          1.287082   -0.499469    0.101981
 C          1.062967    0.914186    0.012487
 C         -0.214488    1.417908   -0.074899
 S          7.917805   -0.565387    0.163809
 S          3.735647   -2.073152    0.249861
 C          2.397411    1.694304    0.057581
 H          8.612700   -4.142445    0.407828
 H         -0.398917    2.486185   -0.134415
 C        -10.366905    2.092894   -0.178470
 C        -11.397468    1.167564   -0.101847
 C        -11.235135   -0.303437   -0.045540
 O        -10.189255   -0.945687   -0.052574
 C        -12.595122   -0.881882    0.019396
 C        -12.944013   -2.223437    0.084863
 C        -14.298130   -2.525560    0.136554
 C        -15.254922   -1.503638    0.121812
 C        -14.904201   -0.159703    0.056531
 C        -13.541672    0.159590    0.004173
 C        -12.826203    1.457161   -0.069540
 C        -13.457881    2.700575   -0.097823
 C        -14.873775    2.861598   -0.060683
 N        -16.025772    3.044644   -0.032939
 C        -12.782595    3.954051   -0.165152
 N        -12.283517    5.007658   -0.220133
 H        -10.671911    3.132219   -0.221107
 H        -12.195605   -3.008630    0.096101
 H        -15.697649    0.574813    0.049314
 C         10.368981   -2.089441    0.208968
 C         11.398004   -1.164216    0.112251
 C         11.232798    0.303579    0.004053
 O         10.186026    0.944382   -0.004383
 C         12.591194    0.881037   -0.094142
 C         12.936946    2.219225   -0.218291
 C         14.289982    2.520986   -0.294625
 C         15.248792    1.502037   -0.245701
 C         14.901205    0.161488   -0.120752
 C         13.539782   -0.157432   -0.043213
 C         12.827352   -1.451706    0.091845
 C         13.462180   -2.690498    0.184070
 C         14.878358   -2.849827    0.151671
 N         16.030822   -3.030854    0.130094
 C         12.790168   -3.939511    0.325585
 N         12.293864   -4.989276    0.443449
 H         10.675705   -3.127127    0.273428
 H         12.186941    3.002082   -0.255785
 H         15.696019   -0.570960   -0.090218
 C         -2.718297   -2.423251    1.279750
 C         -3.750849   -3.373396    1.332507
 C         -4.105036   -3.982187    2.533235
 C         -3.449945   -3.666353    3.732359
 C         -2.430636   -2.710514    3.679097
 C         -2.070367   -2.097841    2.477022
 H         -4.283576   -3.644092    0.427748
 H         -4.909579   -4.714115    2.538539
 H         -1.905844   -2.434967    4.590978
 H         -1.277013   -1.358031    2.485095
 C         -2.335068   -2.632299   -1.271954
 C         -1.900217   -3.958877   -1.153922
 C         -1.743028   -4.764542   -2.282715
 C         -2.010060   -4.279849   -3.568633
 C         -2.430594   -2.947910   -3.684300
 C         -2.586609   -2.138343   -2.560358
 H         -1.686585   -4.374482   -0.174588
 H         -1.406330   -5.791026   -2.156990
 H         -2.636636   -2.534294   -4.668938
 H         -2.903259   -1.107518   -2.692591
 C          2.336261    2.631566    1.281955
 C          1.901563    3.958040    1.162215
 C          1.745162    4.765412    2.289902
 C          2.012860    4.282593    3.576384
 C          2.433215    2.950749    3.693783
 C          2.588444    2.139481    2.570952
 H          1.687453    4.372233    0.182388
 H          1.408578    5.791771    2.162843
 H          2.639735    2.538549    4.678914
 H          2.904911    1.108781    2.704564
 C          2.717802    2.418890   -1.269642
 C          3.750470    3.368798   -1.324328
 C          4.103835    3.976079   -2.526066
 C          3.447771    3.658923   -3.724303
 C          2.428358    2.703303   -3.669115
 C          2.068898    2.092148   -2.466026
 H          4.284042    3.640329   -0.420324
 H          4.908528    4.707830   -2.532871
 H          1.902838    2.426725   -4.580269
 H          1.275417    1.352461   -2.472615
 C         -3.824278   -4.348829    5.026552
 H         -3.417949   -5.367952    5.070134
 H         -3.437149   -3.803291    5.892812
 C         -1.872176   -5.163874   -4.785267
 H         -1.518467   -4.597747   -5.653578
 H         -1.171952   -5.985794   -4.605108
 C          1.875849    5.168448    4.791786
 H          1.175630    5.990200    4.610834
 H          1.522595    4.603668    5.661158
 C          3.821142    4.339831   -5.019602
 H          3.434756    3.792360   -5.884981
 H          3.413356    5.358305   -5.064842
 H         -4.911500   -4.431883    5.134537
 H         -2.836472   -5.610751   -5.061396
 H          2.840377    5.615599    5.066657
 H          4.908238    4.424243   -5.127735
 C          6.799116   -2.923705    0.373870
 C          6.466946   -1.560497    0.289761
 C         -6.796141    2.924729   -0.331585
 C         -6.465632    1.560008   -0.266016
 F         16.541887    1.848351   -0.323759
 F         14.707562    3.789398   -0.416443
 F        -16.549188   -1.850494    0.173152
 F        -14.718785   -3.797141    0.201138
 H          6.058457   -3.711638    0.458044
 H         -6.054359    3.712904   -0.402490
 O          5.714971    1.331722    0.221934
 O         -5.715502   -1.332445   -0.210936
 C          6.032135    1.974218    1.476160
 H          5.177498    2.548433    1.843303
 H          6.332409    1.233426    2.224206
 H          6.869927    2.638077    1.261368
 C         -6.029084   -1.976165   -1.465439
 H         -6.325250   -1.235852   -2.215599
 H         -5.174177   -2.552402   -1.828724
 H         -6.868886   -2.638168   -1.252805
