       142
S0: Total Energy = -7029.57447801
 6          8.933793    2.210515    0.036881
 6          8.173649    3.394315    0.034407
 6          5.128114    1.257355    0.020326
 6          4.797342   -0.100552    0.016465
 6          3.414215   -0.324087    0.018550
 6          2.673835    0.848401    0.015800
 6          1.258256    0.570176    0.003252
 6          1.116378   -0.844538   -0.023872
 6         -0.142776   -1.422293   -0.021972
16          7.863161    0.806033    0.030602
16          3.660705    2.264692    0.016328
 6          2.494680   -1.547011   -0.022687
 1          8.646725    4.368572    0.037617
 1         -0.268382   -2.500870   -0.033152
 6         -8.933806   -2.210508   -0.036932
 6         -8.173664   -3.394309   -0.034477
 6         -5.128126   -1.257353   -0.020344
 6         -4.797352    0.100552   -0.016458
 6         -3.414224    0.324085   -0.018543
 6         -2.673845   -0.848405   -0.015814
 6         -1.258266   -0.570181   -0.003267
 6         -1.116387    0.844532    0.023866
 6          0.142767    1.422287    0.021958
16         -7.863173   -0.806028   -0.030619
16         -3.660719   -2.264694   -0.016367
 6         -2.494688    1.547008    0.022721
 1         -8.646741   -4.368565   -0.037708
 1          0.268371    2.500865    0.033137
 6         10.343079    2.267331    0.046182
 6         11.347718    1.309556    0.049667
 6         11.138507   -0.150172    0.035196
 8         10.072545   -0.759401    0.026129
 6         12.482957   -0.773692    0.033404
 6         12.794237   -2.121526    0.018591
 6         14.142085   -2.489395    0.019141
 6         15.138077   -1.496321    0.035055
 6         14.808348   -0.135087    0.049965
 6         13.462569    0.232353    0.049073
 6         12.785522    1.558854    0.062502
 6         13.454753    2.774426    0.086566
 6         14.877504    2.890695    0.097504
 7         16.033487    3.039893    0.107184
 6         12.814039    4.050051    0.105565
 7         12.339668    5.114980    0.122056
 1         10.677822    3.298555    0.050848
 1         12.011838   -2.872494    0.006690
 1         15.613419    0.585832    0.061378
 6        -10.343093   -2.267322   -0.046244
 6        -11.347729   -1.309545   -0.049719
 6        -11.138517    0.150183   -0.035219
 8        -10.072555    0.759410   -0.026134
 6        -12.482967    0.773704   -0.033436
 6        -12.794245    2.121538   -0.018607
 6        -14.142092    2.489409   -0.019171
 6        -15.138085    1.496336   -0.035118
 6        -14.808358    0.135102   -0.050043
 6        -13.462579   -0.232339   -0.049135
 6        -12.785534   -1.558841   -0.062573
 6        -13.454763   -2.774414   -0.086657
 6        -14.877513   -2.890686   -0.097614
 7        -16.033495   -3.039888   -0.107309
 6        -12.814044   -4.050037   -0.105660
 7        -12.339666   -5.114961   -0.122158
 1        -10.677837   -3.298545   -0.050933
 1        -12.011845    2.872505   -0.006681
 1        -15.613430   -0.585816   -0.061480
 6          2.792012   -2.330049   -1.320288
 6          3.899722   -3.191803   -1.372654
 6          4.245507   -3.847601   -2.551252
 6          3.500968   -3.672285   -3.726939
 6          2.403493   -2.807280   -3.673699
 6          2.053540   -2.145675   -2.493923
 1          4.495686   -3.358525   -0.479900
 1          5.110141   -4.507780   -2.557557
 1          1.807498   -2.642826   -4.568649
 1          1.197918   -1.478699   -2.499286
 6          2.594514   -2.434361    1.236221
 6          2.102841   -3.748192    1.221673
 6          2.111695   -4.531436    2.374707
 6          2.613934   -4.038129    3.586331
 6          3.098033   -2.724796    3.598980
 6          3.088423   -1.935809    2.447890
 1          1.717609   -4.170467    0.298383
 1          1.723163   -5.546533    2.329617
 1          3.491157   -2.307855    4.523581
 1          3.469435   -0.920784    2.501312
 6         -2.594537    2.434406   -1.236149
 6         -2.103064    3.748294   -1.221506
 6         -2.111935    4.531589   -2.374523
 6         -2.613989    4.038266   -3.586197
 6         -3.097893    2.724844   -3.598945
 6         -3.088271    1.935826   -2.447895
 1         -1.717970    4.170595   -0.298170
 1         -1.723557    5.546741   -2.329359
 1         -3.490864    2.307876   -4.523600
 1         -3.469123    0.920744   -2.501385
 6         -2.791992    2.329991    1.320364
 6         -3.899565    3.191887    1.372749
 6         -4.245326    3.847625    2.551411
 6         -3.500883    3.672104    3.727103
 6         -2.403536    2.806903    3.673853
 6         -2.053617    2.145380    2.494046
 1         -4.495476    3.358767    0.479989
 1         -5.109880    4.507905    2.557743
 1         -1.807643    2.642234    4.568833
 1         -1.198119    1.478245    2.499396
 6          3.862777   -4.409433   -4.994869
 1          3.510520   -5.449099   -4.965008
 1          3.413810   -3.936725   -5.874212
 6          2.656827   -4.902167    4.824733
 1          2.613590   -4.297440    5.736581
 1          1.823317   -5.612332    4.846616
 6         -2.656967    4.902299   -4.824600
 1         -1.825565    5.614965   -4.844721
 1         -2.610067    4.297797   -5.736428
 6         -3.862422    4.409335    4.995061
 1         -3.417893    3.933420    5.874941
 1         -3.505079    5.447338    4.967448
 1          4.947934   -4.442320   -5.142980
 1          3.583940   -5.489343    4.867430
 1         -3.585788    5.486633   -4.869155
 1         -4.947763    4.447197    5.140458
 6         -6.794786   -3.187120   -0.028369
 6         -6.438964   -1.821882   -0.026182
 6          6.794771    3.187124    0.028310
 6          6.438951    1.821885    0.026151
 1         -5.548272    0.882857   -0.009647
 1          5.548265   -0.882854    0.009670
 8         -5.818924   -4.122838   -0.025369
 8          5.818908    4.122840    0.025297
 6         -6.217193   -5.496832   -0.024186
 1         -6.803470   -5.731406    0.871388
 1         -6.798389   -5.734595   -0.922262
 1         -5.292674   -6.073932   -0.020521
 6          6.217175    5.496835    0.024082
 1          6.798376    5.734618    0.922149
 1          6.803446    5.731391   -0.871500
 1          5.292654    6.073933    0.020410
17        -16.828820    1.925962   -0.036930
17        -14.549743    4.183763    0.000308
17         16.828812   -1.925945    0.036845
17         14.549737   -4.183749   -0.000316
       142
T1: Total Energy = -7029.54006785
 6          8.903198    2.221797    0.034099
 6          8.142001    3.411867    0.034088
 6          5.106496    1.282447    0.012409
 6          4.775629   -0.095151    0.005330
 6          3.410271   -0.321762    0.004749
 6          2.647968    0.858556    0.004715
 6          1.259973    0.576228   -0.002347
 6          1.116117   -0.852956   -0.028652
 6         -0.131479   -1.430339   -0.020123
16          7.838056    0.812230    0.022775
16          3.630982    2.288645    0.010173
 6          2.497118   -1.548816   -0.036008
 1          8.618309    4.384053    0.040275
 1         -0.256968   -2.508680   -0.029770
 6         -8.903195   -2.221803   -0.034458
 6         -8.141995   -3.411871   -0.034623
 6         -5.106497   -1.282450   -0.012308
 6         -4.775629    0.095147   -0.005094
 6         -3.410270    0.321759   -0.004428
 6         -2.647968   -0.858560   -0.004440
 6         -1.259973   -0.576235    0.002660
 6         -1.116116    0.852949    0.029005
 6          0.131480    1.430332    0.020444
16         -7.838058   -0.812236   -0.022694
16         -3.630983   -2.288649   -0.010065
 6         -2.497115    1.548810    0.036441
 1         -8.618300   -4.384057   -0.041079
 1          0.256966    2.508673    0.030075
 6         10.312509    2.278298    0.044268
 6         11.318304    1.313965    0.046797
 6         11.106449   -0.148068    0.032054
 8         10.039149   -0.754972    0.019860
 6         12.448641   -0.775517    0.034460
 6         12.757600   -2.122959    0.021996
 6         14.106059   -2.493242    0.027567
 6         15.100966   -1.501321    0.046242
 6         14.772991   -0.138261    0.058497
 6         13.428200    0.231372    0.052248
 6         12.750748    1.557054    0.061262
 6         13.424174    2.777886    0.081686
 6         14.845403    2.891058    0.094014
 7         16.002573    3.037413    0.104669
 6         12.788753    4.054249    0.093861
 7         12.321485    5.123335    0.104724
 1         10.650310    3.307869    0.051535
 1         11.974385   -2.873081    0.008182
 1         15.579023    0.581530    0.072309
 6        -10.312504   -2.278307   -0.044849
 6        -11.318302   -1.313977   -0.047283
 6        -11.106460    0.148052   -0.031979
 8        -10.039166    0.754958   -0.019345
 6        -12.448656    0.775493   -0.034405
 6        -12.757628    2.122927   -0.021468
 6        -14.106089    2.493204   -0.027215
 6        -15.100984    1.501283   -0.046567
 6        -14.772996    0.138231   -0.059276
 6        -13.428204   -0.231396   -0.052810
 6        -12.750741   -1.557070   -0.062159
 6        -13.424151   -2.777901   -0.083152
 6        -14.845377   -2.891085   -0.095819
 7        -16.002543   -3.037452   -0.106767
 6        -12.788714   -4.054253   -0.095632
 7        -12.321433   -5.123330   -0.106768
 1        -10.650300   -3.307877   -0.052434
 1        -11.974422    2.873049   -0.007165
 1        -15.579020   -0.581560   -0.073592
 6          2.793520   -2.321403   -1.340363
 6          3.898569   -3.185947   -1.399106
 6          4.242928   -3.831077   -2.583829
 6          3.500373   -3.641130   -3.758615
 6          2.406232   -2.772304   -3.698556
 6          2.057614   -2.120916   -2.512893
 1          4.493274   -3.363406   -0.507753
 1          5.105043   -4.494271   -2.595745
 1          1.812468   -2.596228   -4.592649
 1          1.204757   -1.450322   -2.513722
 6          2.606885   -2.438699    1.219911
 6          2.126389   -3.756516    1.200938
 6          2.142499   -4.542465    2.351891
 6          2.640654   -4.047881    3.564814
 6          3.112672   -2.730206    3.581441
 6          3.095508   -1.937998    2.432748
 1          1.745177   -4.179861    0.276540
 1          1.763450   -5.560903    2.304036
 1          3.502106   -2.312285    4.507017
 1          3.467868   -0.919968    2.490283
 6         -2.606912    2.438862   -1.219347
 6         -2.126936    3.756848   -1.200044
 6         -2.143083    4.542987   -2.350883
 6         -2.640760    4.048420   -3.563991
 6         -3.112273    2.730551   -3.580949
 6         -3.095074    1.938171   -2.432392
 1         -1.746108    4.180195   -0.275488
 1         -1.764441    5.561562   -2.302772
 1         -3.501324    2.312629   -4.506687
 1         -3.467028    0.920007   -2.490174
 6         -2.793492    2.321235    1.340908
 6         -3.898277    3.186086    1.399653
 6         -4.242622    3.831095    2.584466
 6         -3.500297    3.640719    3.759306
 6         -2.406405    2.771550    3.699248
 6         -2.057808    2.120302    2.513522
 1         -4.492815    3.363885    0.508256
 1         -5.104555    4.494523    2.596394
 1         -1.812845    2.595094    4.593402
 1         -1.205168    1.449436    2.514350
 6          3.861487   -4.366453   -5.033306
 1          3.506786   -5.405461   -5.013203
 1          3.414211   -3.884295   -5.908279
 6          2.691775   -4.915067    4.800499
 1          2.642237   -4.313669    5.714149
 1          1.865817   -5.633972    4.819641
 6         -2.691989    4.915746   -4.799574
 1         -1.868137    5.637095   -4.816903
 1         -2.638854    4.314713   -5.713272
 6         -3.861166    4.366042    5.034066
 1         -3.418078    3.880814    5.909484
 1         -3.501679    5.403455    5.016131
 1          4.946649   -4.400387   -5.180555
 1          3.625060   -5.492392    4.841087
 1         -3.626929    5.490263   -4.841917
 1         -4.946489    4.404680    5.178806
 6         -6.767602   -3.207186   -0.026551
 6         -6.399440   -1.834766   -0.020032
 6          6.767606    3.207183    0.026202
 6          6.399441    1.834763    0.019979
 1         -5.534086    0.869463    0.002417
 1          5.534085   -0.869468   -0.002178
 8         -5.795863   -4.138323   -0.025166
 8          5.795869    4.138322    0.024728
 6         -6.188721   -5.516723   -0.029753
 1         -6.775309   -5.753040    0.864328
 1         -6.767657   -5.749440   -0.929779
 1         -5.261225   -6.088488   -0.026909
 6          6.188730    5.516722    0.028973
 1          6.767757    5.749635    0.928890
 1          6.775228    5.752843   -0.865219
 1          5.261234    6.088488    0.026098
17        -16.792382    1.931528   -0.055676
17        -14.511167    4.189656   -0.009906
17         16.792363   -1.931575    0.055045
17         14.511121   -4.189703    0.010882
       142
S1: Total Energy = -7029.52365955
 6          8.910384    2.218354    0.022311
 6          8.153605    3.404027    0.016357
 6          5.109397    1.271161    0.002868
 6          4.781029   -0.098314    0.006847
 6          3.408848   -0.324345    0.008072
 6          2.652725    0.853982   -0.001960
 6          1.260018    0.574505   -0.006904
 6          1.114951   -0.853604   -0.021678
 6         -0.134728   -1.429878   -0.009399
16          7.844455    0.811417    0.014616
16          3.639619    2.279595   -0.007927
 6          2.495122   -1.550523   -0.021238
 1          8.628256    4.377156    0.019997
 1         -0.261511   -2.508084   -0.010598
 6         -8.910382   -2.218356   -0.022655
 6         -8.153598   -3.404027   -0.016968
 6         -5.109397   -1.271154   -0.003693
 6         -4.781030    0.098322   -0.007636
 6         -3.408850    0.324355   -0.008973
 6         -2.652724   -0.853972    0.000960
 6         -1.260018   -0.574495    0.005861
 6         -1.114951    0.853614    0.020663
 6          0.134728    1.429888    0.008352
16         -7.844458   -0.811416   -0.014948
16         -3.639616   -2.279587    0.006938
 6         -2.495122    1.550534    0.020333
 1         -8.628246   -4.377158   -0.020645
 1          0.261510    2.508094    0.009558
 6         10.325659    2.274604    0.037546
 6         11.327242    1.314927    0.044951
 6         11.115019   -0.148522    0.023383
 8         10.046850   -0.753329    0.006163
 6         12.456551   -0.774446    0.025158
 6         12.765335   -2.121794    0.004694
 6         14.113717   -2.492985    0.011029
 6         15.109355   -1.500637    0.039001
 6         14.782961   -0.138279    0.059278
 6         13.436922    0.233829    0.051946
 6         12.765618    1.556736    0.067774
 6         13.436644    2.778752    0.102619
 6         14.857386    2.893791    0.123125
 7         16.014640    3.040856    0.140925
 6         12.798788    4.053299    0.125095
 7         12.327865    5.120997    0.144956
 1         10.661348    3.305173    0.044290
 1         11.981776   -2.871406   -0.015918
 1         15.589201    0.581136    0.079650
 6        -10.325660   -2.274610   -0.037613
 6        -11.327250   -1.314936   -0.044634
 6        -11.115028    0.148510   -0.022874
 8        -10.046857    0.753320   -0.005927
 6        -12.456566    0.774424   -0.024071
 6        -12.765351    2.121766   -0.003231
 6        -14.113738    2.492950   -0.009041
 6        -15.109379    1.500601   -0.036884
 6        -14.782983    0.138250   -0.057549
 6        -13.436939   -0.233852   -0.050731
 6        -12.765631   -1.556751   -0.067076
 6        -13.436658   -2.778764   -0.101998
 6        -14.857406   -2.893814   -0.122013
 7        -16.014664   -3.040886   -0.139417
 6        -12.798796   -4.053297   -0.125066
 7        -12.327868   -5.120985   -0.145397
 1        -10.661346   -3.305180   -0.044431
 1        -11.981791    2.871379    0.017269
 1        -15.589225   -0.581167   -0.077806
 6          2.792253   -2.336655   -1.316966
 6          3.895713   -3.203937   -1.365005
 6          4.240775   -3.861737   -2.542523
 6          3.500493   -3.682373   -3.720403
 6          2.408034   -2.810625   -3.671141
 6          2.058866   -2.146400   -2.492879
 1          4.488474   -3.373468   -0.470824
 1          5.101631   -4.526647   -2.546255
 1          1.816171   -2.642477   -4.568006
 1          1.207555   -1.473855   -2.502071
 6          2.601889   -2.426634    1.244519
 6          2.121799   -3.744728    1.239692
 6          2.136056   -4.517310    2.399657
 6          2.631943   -4.008578    3.607724
 6          3.103703   -2.690687    3.610099
 6          3.088241   -1.911750    2.452385
 1          1.742287   -4.178708    0.319530
 1          1.757295   -5.536318    2.362961
 1          3.491310   -2.262099    4.531548
 1          3.459787   -0.892819    2.498614
 6         -2.601969    2.426715   -1.245366
 6         -2.122161    3.744895   -1.240411
 6         -2.136498    4.517561   -2.400336
 6         -2.632184    4.008818   -3.608463
 6         -3.103672    2.690813   -3.610967
 6         -3.088134    1.911810   -2.453315
 1         -1.742809    4.178898   -0.320195
 1         -1.757954    5.536644   -2.363542
 1         -3.491114    2.262203   -4.532477
 1         -3.459464    0.892804   -2.499636
 6         -2.792169    2.336598    1.316128
 6         -3.895428    3.204103    1.364204
 6         -4.240418    3.861845    2.541799
 6         -3.500242    3.682201    3.719679
 6         -2.407973    2.810186    3.670386
 6         -2.058887    2.146039    2.492080
 1         -4.488122    3.373855    0.470020
 1         -5.101145    4.526917    2.545572
 1         -1.816220    2.641768    4.567275
 1         -1.207747    1.473279    2.501245
 6          3.862084   -4.421676   -4.986873
 1          3.504408   -5.459427   -4.956773
 1          3.417865   -3.947332   -5.867646
 6          2.680790   -4.861352    4.853450
 1          2.630542   -4.249280    5.759932
 1          1.854259   -5.579360    4.879888
 6         -2.681182    4.861620   -4.854164
 1         -1.856713    5.582039   -4.878955
 1         -2.627450    4.249821   -5.760641
 6         -3.861519    4.421578    4.986195
 1         -3.421555    3.944156    5.867453
 1         -3.498950    5.457701    4.958266
 1          4.947431   -4.460150   -5.131564
 1          3.613588   -5.438857    4.901956
 1         -3.615602    5.436352   -4.904375
 1         -4.947004    4.464849    5.128318
 6         -6.772799   -3.197710   -0.008102
 6         -6.411294   -1.832033   -0.007952
 6          6.772805    3.197713    0.007289
 6          6.411296    1.832038    0.007248
 1         -5.537118    0.875013   -0.007105
 1          5.537116   -0.875006    0.006416
 8         -5.802215   -4.133704   -0.001576
 8          5.802225    4.133710    0.000492
 6         -6.199191   -5.510031   -0.000588
 1         -6.787162   -5.742393    0.893847
 1         -6.777671   -5.746644   -0.900115
 1         -5.273509   -6.084939    0.005713
 6          6.199206    5.510035   -0.000596
 1          6.777553    5.746751    0.898989
 1          6.787311    5.742291   -0.894971
 1          5.273527    6.084945   -0.007102
17        -16.800189    1.932878   -0.046805
17        -14.518359    4.188927    0.018847
17         16.800159   -1.932922    0.049568
17         14.518336   -4.188970   -0.016383
