       100
S0: Total Energy = -3867.56109732
 C         -5.323269    0.880498   -0.186518
 C         -4.682622    2.120974   -0.442599
 C         -3.284565    2.003077   -0.466546
 C         -2.805073    0.711366   -0.257806
 C         -1.396279    0.325364   -0.232780
 C         -0.955632   -1.025238   -0.214593
 C          0.402423   -1.323180   -0.220404
 S         -4.129396   -0.410818   -0.059848
 H          0.706676   -2.359615   -0.196692
 C          5.323250   -0.880434   -0.186651
 C          4.682538   -2.120872   -0.442778
 C          3.284485   -2.002889   -0.466759
 C          2.805077   -0.711158   -0.257998
 C          1.396298   -0.325118   -0.232861
 C          0.955666    1.025496   -0.215527
 C         -0.402387    1.323432   -0.221265
 S          4.129444    0.410950   -0.059995
 H         -0.706607    2.359890   -0.198323
 C         -6.710981    0.790281    0.090399
 C         -7.580244   -0.267412    0.294610
 C         -7.291498   -1.700300    0.057474
 O         -6.215172   -2.223437   -0.209505
 C         -8.583181   -2.416760    0.172708
 C         -8.815728   -3.774056   -0.008999
 C        -10.120335   -4.219009    0.142508
 C        -11.147559   -3.322309    0.466578
 C        -10.912592   -1.966088    0.653940
 C         -9.599619   -1.504108    0.502310
 C         -8.996955   -0.153384    0.642222
 C         -9.680098    0.965308    1.090481
 C        -11.078774    0.965207    1.379526
 N        -12.217818    1.013949    1.621321
 C         -9.075254    2.231337    1.360132
 N         -8.644997    3.283693    1.616543
 H         -8.015533   -4.462207   -0.259330
 H        -11.752300   -1.331327    0.901617
 H         -7.158848    1.776508    0.148339
 C          6.710962   -0.790287    0.090295
 C          7.580271    0.267357    0.294571
 C          7.291594    1.700272    0.057512
 O          6.215293    2.223474   -0.209439
 C          8.583295    2.416679    0.172874
 C          8.815898    3.773984   -0.008692
 C         10.120515    4.218876    0.142912
 C         11.147694    3.322110    0.466940
 C         10.912670    1.965879    0.654162
 C          9.599687    1.503962    0.502434
 C          8.996974    0.153246    0.642197
 C          9.680080   -0.965505    1.090361
 C         11.078748   -0.965447    1.379450
 N         12.217785   -1.014204    1.621276
 C          9.075223   -2.231563    1.359844
 N          8.644969   -3.283955    1.616108
 H          8.015739    4.462188   -0.258992
 H         11.752343    1.331064    0.901819
 H          7.158781   -1.776536    0.148219
 H          2.646493   -2.849582   -0.686429
 H         -2.646648    2.849851   -0.686108
 O          1.927568    1.972608   -0.191163
 O         -1.927514   -1.972342   -0.189323
 C          1.575436    3.354560   -0.187015
 H          1.009531    3.619620   -1.087567
 H          0.994811    3.610879    0.706680
 H          2.521524    3.895715   -0.176443
 C         -1.575381   -3.354292   -0.184447
 H         -1.009658   -3.619872   -1.084961
 H         -0.994575   -3.610090    0.709280
 H         -2.521466   -3.895440   -0.173369
 F         12.390127    3.807145    0.595906
 F         10.430134    5.511862   -0.017716
 F        -10.429902   -5.511990   -0.018258
 F        -12.389981   -3.807401    0.595444
 C         -5.366228    3.406372   -0.689856
 C         -6.434393    3.512349   -1.597449
 C         -4.921493    4.578246   -0.051707
 C         -7.042799    4.741922   -1.841167
 H         -6.767544    2.632445   -2.140136
 C         -5.537342    5.800958   -0.297869
 H         -4.101400    4.521919    0.658777
 C         -6.613285    5.906587   -1.192354
 H         -7.860866    4.797983   -2.555166
 H         -5.181784    6.689890    0.217761
 C          5.366083   -3.406291   -0.690053
 C          4.921230   -4.578168   -0.051993
 C          6.434317   -3.512294   -1.597566
 C          5.537034   -5.800905   -0.298148
 H          4.101076   -4.521825    0.658419
 C          7.042676   -4.741888   -1.841278
 H          6.767548   -2.632392   -2.140207
 C          6.613053   -5.906555   -1.192535
 H          5.181379   -6.689839    0.217410
 H          7.860798   -4.797967   -2.555215
 C         -7.298349    7.230554   -1.429407
 H         -6.589036    8.063664   -1.381690
 H         -7.793362    7.256720   -2.405349
 H         -8.066961    7.414636   -0.667272
 C          7.298092   -7.230538   -1.429567
 H          8.066968   -7.414437   -0.667655
 H          6.588831   -8.063668   -1.381460
 H          7.792788   -7.256866   -2.405668
       100
T1: Total Energy = -3867.51305413
 C         -5.313069   -0.898610    0.210259
 C         -4.650123   -2.165997    0.382189
 C         -3.270990   -2.039514    0.412946
 C         -2.782149   -0.717310    0.308082
 C         -1.408282   -0.342937    0.312415
 C         -0.951818    1.031208    0.307214
 C          0.390612    1.338553    0.308928
 S         -4.137887    0.413933    0.203540
 H          0.683824    2.377609    0.293859
 C          5.313074    0.898604    0.210316
 C          4.650124    2.165993    0.382216
 C          3.270989    2.039508    0.412953
 C          2.782153    0.717299    0.308126
 C          1.408287    0.342925    0.312443
 C          0.951823   -1.031220    0.307279
 C         -0.390607   -1.338566    0.308960
 S          4.137897   -0.413943    0.203648
 H         -0.683818   -2.377623    0.293918
 C         -6.689726   -0.808649   -0.070386
 C         -7.569442    0.265759   -0.220935
 C         -7.303797    1.678025    0.148061
 O         -6.244877    2.176816    0.513530
 C         -8.591124    2.399360    0.022743
 C         -8.843207    3.736966    0.294943
 C        -10.142619    4.188073    0.109005
 C        -11.141843    3.314962   -0.337266
 C        -10.886030    1.976277   -0.615379
 C         -9.580857    1.509337   -0.429083
 C         -8.958524    0.174861   -0.636109
 C         -9.614587   -0.920429   -1.192356
 C        -10.999935   -0.910867   -1.531044
 N        -12.129988   -0.950384   -1.816539
 C         -8.985590   -2.154415   -1.534967
 N         -8.531774   -3.179753   -1.855656
 H         -8.063039    4.407366    0.639193
 H        -11.706162    1.359592   -0.956745
 H         -7.132640   -1.789758   -0.195640
 C          6.689729    0.808639   -0.070339
 C          7.569449   -0.265770   -0.220853
 C          7.303821   -1.678021    0.148208
 O          6.244912   -2.176803    0.513723
 C          8.591155   -2.399350    0.022910
 C          8.843253   -3.736940    0.295171
 C         10.142666   -4.188044    0.109237
 C         11.141876   -3.314947   -0.337088
 C         10.886048   -1.976276   -0.615260
 C          9.580875   -1.509337   -0.428965
 C          8.958525   -0.174875   -0.636043
 C          9.614563    0.920402   -1.192345
 C         10.999903    0.910853   -1.531065
 N         12.129948    0.950397   -1.816584
 C          8.985531    2.154359   -1.535001
 N          8.531686    3.179673   -1.855725
 H          8.063094   -4.407330    0.639463
 H         11.706171   -1.359601   -0.956666
 H          7.132638    1.789745   -0.195638
 H          2.627190    2.897418    0.559226
 H         -2.627195   -2.897422    0.559255
 O          1.931182   -1.959044    0.301389
 O         -1.931178    1.959031    0.301264
 C          1.603741   -3.349736    0.297883
 H          1.033632   -3.617135    1.194314
 H          1.035866   -3.613652   -0.601031
 H          2.559775   -3.872284    0.298122
 C         -1.603740    3.349723    0.297729
 H         -1.033659    3.617148    1.194170
 H         -1.035838    3.613616   -0.601175
 H         -2.559775    3.872269    0.297924
 F         12.380537   -3.801610   -0.496278
 F         10.469855   -5.464662    0.353129
 F        -10.469795    5.464704    0.352841
 F        -12.380503    3.801628   -0.496460
 C         -5.331963   -3.468982    0.526445
 C         -6.403876   -3.647053    1.418779
 C         -4.877785   -4.588853   -0.192144
 C         -7.001054   -4.895727    1.574685
 H         -6.751684   -2.809362    2.016345
 C         -5.481305   -5.832532   -0.031495
 H         -4.058608   -4.475622   -0.896915
 C         -6.557446   -6.010013    0.850047
 H         -7.822092   -5.007859    2.278657
 H         -5.116250   -6.679887   -0.606956
 C          5.331953    3.468986    0.526445
 C          4.877783    4.588832   -0.192186
 C          6.403845    3.647095    1.418799
 C          5.481291    5.832520   -0.031565
 H          4.058622    4.475574   -0.896973
 C          7.001012    4.895777    1.574678
 H          6.751645    2.809426    2.016402
 C          6.557411    6.010037    0.849995
 H          5.116243    6.679855   -0.607062
 H          7.822033    5.007938    2.278665
 C         -7.232848   -7.352380    0.993157
 H         -6.527204   -8.175318    0.838225
 H         -7.685256   -7.469865    1.983188
 H         -8.034799   -7.467611    0.252090
 C          7.232802    7.352412    0.993078
 H          8.034801    7.467606    0.252056
 H          6.527167    8.175341    0.838058
 H          7.685147    7.469950    1.983132
       100
S1: Total Energy = -3867.49453229
 C          5.316295   -0.904023   -0.190911
 C          4.662718   -2.162875   -0.375142
 C          3.274863   -2.037258   -0.409500
 C          2.791447   -0.723346   -0.288642
 C          1.405030   -0.345486   -0.293119
 C          0.954000    1.025112   -0.288519
 C         -0.394829    1.335707   -0.288413
 S          4.137951    0.405180   -0.163921
 H         -0.685697    2.375402   -0.271170
 C         -5.316307    0.904058   -0.190929
 C         -4.662737    2.162919   -0.375117
 C         -3.274882    2.037310   -0.409478
 C         -2.791460    0.723397   -0.288650
 C         -1.405042    0.345541   -0.293128
 C         -0.954012   -1.025056   -0.288560
 C          0.394818   -1.335651   -0.288446
 S         -4.137956   -0.405139   -0.163943
 H          0.685685   -2.375347   -0.271232
 C          6.699814   -0.807944    0.095202
 C          7.574707    0.264079    0.236545
 C          7.300982    1.675485   -0.131655
 O          6.235445    2.171210   -0.483194
 C          8.587408    2.399205   -0.023534
 C          8.833440    3.736080   -0.302786
 C         10.133898    4.191607   -0.131322
 C         11.139360    3.322397    0.309091
 C         10.890436    1.984167    0.595040
 C          9.584151    1.511354    0.423034
 C          8.971434    0.178859    0.640759
 C          9.635844   -0.915794    1.193336
 C         11.023533   -0.903051    1.518461
 N         12.157014   -0.938954    1.793090
 C          9.012437   -2.149410    1.543039
 N          8.560717   -3.175538    1.866552
 H          8.048131    4.403290   -0.641600
 H         11.715224    1.370923    0.931388
 H          7.140740   -1.788691    0.231865
 C         -6.699830    0.807961    0.095143
 C         -7.574706   -0.264080    0.236447
 C         -7.300932   -1.675476   -0.131751
 O         -6.235365   -2.171175   -0.483238
 C         -8.587338   -2.399235   -0.023645
 C         -8.833320   -3.736122   -0.302882
 C        -10.133769   -4.191686   -0.131449
 C        -11.139272   -3.322498    0.308915
 C        -10.890398   -1.984257    0.594853
 C         -9.584120   -1.511408    0.422883
 C         -8.971447   -0.178893    0.640611
 C         -9.635901    0.915750    1.193152
 C        -11.023599    0.902982    1.518237
 N        -12.157089    0.938867    1.792830
 C         -9.012531    2.149385    1.542856
 N         -8.560841    3.175542    1.866320
 H         -8.047982   -4.403313   -0.641665
 H        -11.715214   -1.371033    0.931164
 H         -7.140776    1.788700    0.231805
 H         -2.633462    2.894597   -0.569896
 H          2.633438   -2.894537   -0.569942
 O         -1.929147   -1.952313   -0.283703
 O          1.929134    1.952370   -0.283626
 C         -1.606264   -3.345862   -0.276028
 H         -1.036051   -3.615900   -1.171157
 H         -1.041727   -3.608010    0.625052
 H         -2.564814   -3.863288   -0.276907
 C          1.606249    3.345918   -0.275919
 H          1.036049    3.615979   -1.171050
 H          1.041698    3.608042    0.625159
 H          2.564799    3.863346   -0.276770
 F        -12.378050   -3.813501    0.454408
 F        -10.455172   -5.468505   -0.383683
 F         10.455346    5.468413   -0.383565
 F         12.378147    3.813366    0.454618
 C          5.343140   -3.464249   -0.532897
 C          6.427500   -3.629418   -1.412710
 C          4.878745   -4.595093    0.162201
 C          7.028028   -4.875319   -1.577604
 H          6.782103   -2.783249   -1.994055
 C          5.485411   -5.835825   -0.007530
 H          4.049582   -4.492967    0.856963
 C          6.574721   -6.000079   -0.875651
 H          7.859158   -4.976878   -2.271222
 H          5.112522   -6.691635    0.550134
 C         -5.343169    3.464292   -0.532839
 C         -4.878758    4.595134    0.162253
 C         -6.427564    3.629460   -1.412608
 C         -5.485436    5.835864   -0.007449
 H         -4.049569    4.493007    0.856985
 C         -7.028110    4.875357   -1.577467
 H         -6.782189    2.783290   -1.993940
 C         -6.574781    6.000115   -0.875525
 H         -5.112533    6.691672    0.550207
 H         -7.859270    4.976915   -2.271050
 C          7.252733   -7.340005   -1.028402
 H          6.545249   -8.165373   -0.896484
 H          7.720315   -7.442617   -2.013004
 H          8.043332   -7.465890   -0.276947
 C         -7.252809    7.340038   -1.028242
 H         -8.043405    7.465896   -0.276779
 H         -6.545333    8.165410   -0.896309
 H         -7.720399    7.442667   -2.012839
