       150
S0: Total Energy = -5218.73853905
 S          5.907740   -0.269313    0.006281
 S          1.654286   -1.473116   -0.037141
 F         12.689791    4.127082    0.099069
 F         14.530439    2.195610    0.038675
 O          8.172528    1.251658    0.044134
 N         14.030643   -2.701588   -0.087751
 N         10.286927   -4.682842   -0.121066
 C         10.922626    2.545300    0.066115
 H         10.170002    3.326039    0.090158
 C         12.274451    2.854741    0.067646
 C         13.239206    1.838591    0.035934
 C         12.895016    0.493215    0.002542
 H         13.692452   -0.236601   -0.020421
 C         11.533406    0.166993    0.000855
 C         10.580224    1.199636    0.032475
 C          9.220952    0.614872    0.023135
 C          9.388757   -0.853963   -0.015322
 C         10.824215   -1.139002   -0.029717
 C         11.459104   -2.370584   -0.065612
 C         12.878914   -2.523955   -0.077051
 C         10.785540   -3.629486   -0.095710
 C          8.364068   -1.781470   -0.033694
 H          8.668484   -2.821850   -0.059410
 C          6.950930   -1.686142   -0.027463
 C          6.159620   -2.842599   -0.053743
 H          6.607851   -3.831242   -0.077063
 C          4.775523   -2.639610   -0.048435
 C          4.463585   -1.267009   -0.016353
 C          3.182955   -0.611508   -0.000856
 C          2.944147    0.754419    0.041040
 H          3.737193    1.493729    0.069812
 C          1.583137    1.127865    0.045292
 C          0.723174    0.019087    0.004940
 C          3.792731   -3.779941   -0.074209
 H          3.145238   -3.743952   -0.957991
 H          3.140353   -3.779990    0.806597
 C          1.191510    2.573291    0.090711
 C          1.058952    3.305928   -1.115122
 C          0.776123    4.673070   -1.043461
 H          0.681562    5.235908   -1.968365
 C          0.623158    5.340277    0.176743
 C          0.762815    4.595520    1.349658
 H          0.655594    5.104520    2.304708
 C          1.046948    3.224793    1.338152
 C          1.250563    2.653485   -2.484056
 H          1.300199    1.569896   -2.336074
 C          0.075547    2.922926   -3.442738
 H         -0.005850    3.984668   -3.702405
 H         -0.877193    2.608919   -3.002778
 H          0.218494    2.367724   -4.377166
 C          2.586280    3.088872   -3.119817
 H          2.735628    2.585528   -4.082469
 H          3.435523    2.842935   -2.472792
 H          2.604480    4.170539   -3.298771
 C          0.326045    6.833162    0.235524
 H          0.256167    7.105379    1.297237
 C         -1.025501    7.177454   -0.418504
 H         -1.022014    6.942689   -1.489523
 H         -1.242071    8.247017   -0.312859
 H         -1.844704    6.616786    0.045498
 C          1.224285    2.488358    2.665380
 H          1.287605    1.416885    2.449839
 C          0.031164    2.686313    3.619212
 H         -0.066265    3.729472    3.941094
 H          0.165349    2.076546    4.520331
 H         -0.910733    2.390085    3.144992
 C          2.545212    2.894899    3.349321
 H          2.549452    3.962783    3.598202
 H          3.406830    2.699186    2.701519
 H          2.684808    2.331832    4.279827
 C          1.465402    7.667813   -0.380131
 H          1.579737    7.458730   -1.450380
 H          2.422569    7.452782    0.107491
 H          1.259060    8.738971   -0.270282
 S         -5.907787    0.269269   -0.008051
 S         -1.654317    1.473013    0.036163
 F        -12.690001   -4.126846   -0.103623
 F        -14.530592   -2.195302   -0.043731
 O         -8.172646   -1.251603   -0.046942
 N        -14.030660    2.701872    0.083077
 N        -10.286905    4.682993    0.117777
 C        -10.922785   -2.545133   -0.069962
 H        -10.170181   -3.325898   -0.093804
 C        -12.274621   -2.854523   -0.071976
 C        -13.239345   -1.838338   -0.040528
 C        -12.895114   -0.492977   -0.006933
 H        -13.692533    0.236865    0.015803
 C        -11.533494   -0.166804   -0.004757
 C        -10.580343   -1.199484   -0.036115
 C         -9.221051   -0.614777   -0.026257
 C         -9.388809    0.854062    0.012271
 C        -10.824264    1.139163    0.026144
 C        -11.459127    2.370768    0.061822
 C        -12.878934    2.524192    0.072773
 C        -10.785546    3.629657    0.092163
 C         -8.364080    1.781516    0.031169
 H         -8.668455    2.821907    0.056860
 C         -6.950942    1.686131    0.025498
 C         -6.159603    2.842557    0.052226
 H         -6.607808    3.831213    0.075500
 C         -4.775512    2.639520    0.047465
 C         -4.463608    1.266910    0.015433
 C         -3.182987    0.611378    0.000595
 C         -2.944182   -0.754589   -0.040004
 H         -3.737229   -1.493932   -0.067949
 C         -1.583170   -1.128039   -0.043896
 C         -0.723207   -0.019230   -0.004516
 C         -3.792687    3.779812    0.073774
 H         -3.145251    3.743445    0.957579
 H         -3.140254    3.780197   -0.806994
 C         -1.191567   -2.573517   -0.087815
 C         -1.058031   -3.304659    1.118821
 C         -0.775390   -4.671908    1.048612
 H         -0.680088   -5.233621    1.974119
 C         -0.623555   -5.340657   -0.170894
 C         -0.764114   -4.597351   -1.344612
 H         -0.657747   -5.107549   -2.299118
 C         -1.048076   -3.226569   -1.334565
 C         -1.248442   -2.650496    2.487102
 H         -1.297942   -1.567079    2.337838
 C         -0.072755   -2.919032    3.445212
 H          0.008517   -3.980452    3.706232
 H          0.879741   -2.605913    3.004087
 H         -0.214792   -2.362548    4.379014
 C         -2.583781   -3.084783    3.124415
 H         -2.732243   -2.580284    4.086601
 H         -3.433454   -2.839354    2.477763
 H         -2.602136   -4.166238    3.304634
 C         -0.326421   -6.833601   -0.228029
 H         -0.258657   -7.107413   -1.289470
 C          1.026560   -7.176576    0.423756
 H          1.025239   -6.939947    1.494372
 H          1.243107   -8.246280    0.319489
 H          1.844683   -6.616549   -0.042917
 C         -1.226284   -2.491720   -2.662561
 H         -1.289427   -1.419987   -2.448258
 C         -0.033771   -2.690841   -3.616915
 H          0.063454   -3.734394   -3.937578
 H         -0.168538   -2.082175   -4.518693
 H          0.908426   -2.394020   -3.143663
 C         -2.547647   -2.899036   -3.345194
 H         -2.552087   -3.967218   -3.592788
 H         -3.408868   -2.702503   -2.697112
 H         -2.687785   -2.337086   -4.276294
 C         -1.464302   -7.667579    0.391227
 H         -1.576394   -7.457089    1.461439
 H         -2.422553   -7.453400   -0.094639
 H         -1.257993   -8.738847    0.282403
 H          4.326200   -4.734578   -0.092043
 H         -4.326126    4.734459    0.091936
       150
T1: Total Energy = -5218.70076286
 S          5.885340   -0.293467    0.006580
 S          1.626454   -1.520033   -0.039546
 F         12.641247    4.128339    0.116102
 F         14.488235    2.199490    0.047853
 O          8.133392    1.231757    0.052433
 N         14.002315   -2.699543   -0.089962
 N         10.273215   -4.698976   -0.130010
 C         10.879078    2.538620    0.078249
 H         10.124136    3.317066    0.105342
 C         12.230846    2.853199    0.080327
 C         13.196873    1.840464    0.044616
 C         12.856393    0.492656    0.006657
 H         13.656169   -0.234529   -0.019293
 C         11.496925    0.162082    0.004453
 C         10.541371    1.192731    0.040014
 C          9.185658    0.600232    0.028669
 C          9.359535   -0.868597   -0.015950
 C         10.788551   -1.145610   -0.030318
 C         11.430175   -2.380211   -0.068974
 C         12.849049   -2.527238   -0.079710
 C         10.764048   -3.641234   -0.102100
 C          8.332173   -1.805535   -0.040178
 H          8.641630   -2.843688   -0.070999
 C          6.924208   -1.710456   -0.035077
 C          6.126858   -2.879095   -0.069193
 H          6.582924   -3.863644   -0.097915
 C          4.754872   -2.684959   -0.064619
 C          4.424891   -1.299603   -0.024762
 C          3.168202   -0.665661   -0.009006
 C          2.933523    0.730570    0.031607
 H          3.741383    1.453225    0.055703
 C          1.606381    1.116986    0.039072
 C          0.701504   -0.000837    0.002479
 C          3.773066   -3.823466   -0.098930
 H          3.123959   -3.776458   -0.981169
 H          3.122190   -3.828577    0.783171
 C          1.221855    2.563563    0.082346
 C          1.087168    3.290659   -1.126117
 C          0.813394    4.659415   -1.056595
 H          0.717592    5.220401   -1.982253
 C          0.670612    5.330574    0.162938
 C          0.809453    4.588512    1.337852
 H          0.708374    5.100885    2.291574
 C          1.085026    3.216257    1.329533
 C          1.267092    2.629294   -2.492339
 H          1.293640    1.544835   -2.341456
 C          0.099896    2.919008   -3.454426
 H          0.043031    3.980391   -3.721342
 H         -0.860428    2.629350   -3.014279
 H          0.232543    2.354842   -4.384838
 C          2.613275    3.033662   -3.126431
 H          2.752487    2.525913   -4.088155
 H          3.455980    2.770026   -2.477877
 H          2.655119    4.114413   -3.306354
 C          0.384211    6.825581    0.218684
 H          0.320508    7.101172    1.279821
 C         -0.967506    7.177274   -0.431068
 H         -0.970034    6.940062   -1.501530
 H         -1.175802    8.248541   -0.327130
 H         -1.788890    6.623899    0.037782
 C          1.260602    2.479132    2.656596
 H          1.307945    1.405920    2.443431
 C          0.076215    2.694265    3.617427
 H         -0.004270    3.738670    3.939419
 H          0.208011    2.083197    4.517866
 H         -0.872737    2.411203    3.149296
 C          2.591531    2.867979    3.331248
 H          2.612380    3.936376    3.576599
 H          3.446502    2.658005    2.679181
 H          2.727922    2.305713    4.262570
 C          1.527326    7.649934   -0.403901
 H          1.635756    7.437540   -1.474091
 H          2.484836    7.429424    0.080514
 H          1.328894    8.722667   -0.295780
 S         -5.885357    0.293473   -0.006884
 S         -1.626473    1.520045    0.039216
 F        -12.641229   -4.128372   -0.116124
 F        -14.488229   -2.199538   -0.047738
 O         -8.133394   -1.231754   -0.052747
 N        -14.002338    2.699500    0.090034
 N        -10.273253    4.698961    0.129925
 C        -10.879071   -2.538639   -0.078389
 H        -10.124125   -3.317078   -0.105532
 C        -12.230837   -2.853229   -0.080374
 C        -13.196869   -1.840502   -0.044593
 C        -12.856398   -0.492691   -0.006656
 H        -13.656178    0.234488    0.019352
 C        -11.496932   -0.162106   -0.004548
 C        -10.541372   -1.192748   -0.040174
 C         -9.185663   -0.600238   -0.028911
 C         -9.359548    0.868590    0.015706
 C        -10.788566    1.145592    0.030176
 C        -11.430197    2.380188    0.068885
 C        -12.849071    2.527204    0.079726
 C        -10.764078    3.641216    0.101976
 C         -8.332192    1.805535    0.039845
 H         -8.641653    2.843689    0.070629
 C         -6.924226    1.710463    0.034697
 C         -6.126879    2.879105    0.068722
 H         -6.582946    3.863656    0.097384
 C         -4.754893    2.684972    0.064140
 C         -4.424909    1.299613    0.024387
 C         -3.168219    0.665670    0.008696
 C         -2.933539   -0.730564   -0.031782
 H         -3.741398   -1.453222   -0.055819
 C         -1.606397   -1.116980   -0.039164
 C         -0.701520    0.000846   -0.002649
 C         -3.773088    3.823483    0.098356
 H         -3.123981    3.776551    0.980598
 H         -3.122213    3.828521   -0.783745
 C         -1.221870   -2.563563   -0.082221
 C         -1.087175   -3.290473    1.126354
 C         -0.813408   -4.659240    1.057039
 H         -0.717601   -5.220086    1.982782
 C         -0.670642   -5.330589   -0.162391
 C         -0.809486   -4.588708   -1.337418
 H         -0.708414   -5.101228   -2.291061
 C         -1.085049   -3.216449   -1.329308
 C         -1.267100   -2.628905    2.492478
 H         -1.293653   -1.544468    2.341437
 C         -0.099901   -2.918473    3.454606
 H         -0.043034   -3.979816    3.721680
 H          0.860421   -2.628878    3.014416
 H         -0.232549   -2.354169    4.384935
 C         -2.613280   -3.033183    3.126632
 H         -2.752491   -2.525294    4.088282
 H         -3.455987   -2.769641    2.478041
 H         -2.655123   -4.113908    3.306712
 C         -0.384210   -6.825598   -0.217901
 H         -0.320736   -7.101401   -1.278996
 C          0.967674   -7.177087    0.431619
 H          0.970435   -6.939617    1.502023
 H          1.175994   -8.248369    0.327885
 H          1.788924   -6.623786   -0.037552
 C         -1.260601   -2.479516   -2.656481
 H         -1.307939   -1.406273   -2.443471
 C         -0.076198   -2.694793   -3.617260
 H          0.004287   -3.739243   -3.939105
 H         -0.207973   -2.083850   -4.517787
 H          0.872748   -2.411670   -3.149152
 C         -2.591519   -2.868452   -3.331104
 H         -2.612372   -3.936885   -3.576296
 H         -3.446504   -2.658374   -2.679088
 H         -2.727884   -2.306323   -4.262512
 C         -1.527137   -7.649886    0.405112
 H         -1.635315   -7.437317    1.475293
 H         -2.484777   -7.429503   -0.079106
 H         -1.328686   -8.722629    0.297128
 H          4.305176   -4.778363   -0.126260
 H         -4.305199    4.778383    0.125606
       150
S1: Total Energy = -5218.68182381
 S          5.890852   -0.288064    0.008229
 S          1.635489   -1.502883   -0.037942
 F         12.643108    4.136111    0.130530
 F         14.491607    2.209306    0.052588
 O          8.137788    1.233526    0.060214
 N         14.014235   -2.695203   -0.103879
 N         10.282161   -4.692840   -0.149470
 C         10.882227    2.544001    0.088675
 H         10.126391    3.321473    0.119418
 C         12.233927    2.860486    0.090416
 C         13.200884    1.848245    0.049615
 C         12.862860    0.500236    0.007118
 H         13.663447   -0.225939   -0.022449
 C         11.502827    0.166249    0.005379
 C         10.545830    1.198167    0.045898
 C          9.191818    0.605552    0.033504
 C          9.367546   -0.865420   -0.015971
 C         10.801053   -1.139310   -0.033371
 C         11.442341   -2.376376   -0.078462
 C         12.860308   -2.523790   -0.091515
 C         10.775574   -3.635739   -0.116968
 C          8.344842   -1.798980   -0.040397
 H          8.652809   -2.837693   -0.072522
 C          6.928965   -1.705094   -0.033946
 C          6.137046   -2.867662   -0.067832
 H          6.589380   -3.853850   -0.097023
 C          4.756845   -2.668824   -0.062721
 C          4.435888   -1.291142   -0.023281
 C          3.169288   -0.645543   -0.007688
 C          2.936158    0.739072    0.031336
 H          3.739510    1.466592    0.055012
 C          1.596195    1.121381    0.037866
 C          0.708755    0.006238    0.002567
 C          3.776373   -3.808827   -0.096610
 H          3.127055   -3.764268   -0.978969
 H          3.125360   -3.815628    0.785526
 C          1.207402    2.566533    0.078880
 C          1.071220    3.291895   -1.130701
 C          0.792083    4.659683   -1.063039
 H          0.694688    5.218965   -1.989584
 C          0.646608    5.332164    0.155411
 C          0.788563    4.592333    1.331370
 H          0.686194    5.105784    2.284374
 C          1.069266    3.221112    1.325190
 C          1.255155    2.630625   -2.496447
 H          1.295952    1.546816   -2.343960
 C          0.080997    2.904528   -3.454818
 H          0.008943    3.965200   -3.720882
 H         -0.874130    2.601863   -3.012047
 H          0.218244    2.342566   -4.385879
 C          2.593728    3.051177   -3.136147
 H          2.736581    2.542070   -4.096591
 H          3.442118    2.801274   -2.489604
 H          2.620415    4.131711   -3.320026
 C          0.354594    6.826149    0.208880
 H          0.291970    7.103523    1.269603
 C         -0.999822    7.171199   -0.438832
 H         -1.003752    6.931271   -1.508685
 H         -1.211801    8.241941   -0.337129
 H         -1.818182    6.616089    0.033240
 C          1.249449    2.487514    2.653611
 H          1.304654    1.414297    2.442178
 C          0.063048    2.695972    3.613482
 H         -0.025450    3.740581    3.932668
 H          0.199063    2.088247    4.515527
 H         -0.883806    2.404622    3.146103
 C          2.577071    2.887212    3.328524
 H          2.589586    3.955870    3.573199
 H          3.433999    2.683337    2.677112
 H          2.717248    2.326654    4.260288
 C          1.493189    7.653734   -0.417667
 H          1.599895    7.440217   -1.487805
 H          2.452649    7.437593    0.064842
 H          1.290925    8.725842   -0.310674
 S         -5.890870    0.288050   -0.008381
 S         -1.635517    1.502911    0.037673
 F        -12.643135   -4.136150   -0.130611
 F        -14.491635   -2.209348   -0.052591
 O         -8.137817   -1.233565   -0.060295
 N        -14.014271    2.695130    0.103813
 N        -10.282189    4.692791    0.149631
 C        -10.882255   -2.544040   -0.088750
 H        -10.126419   -3.321511   -0.119521
 C        -12.233955   -2.860525   -0.090475
 C        -13.200912   -1.848286   -0.049634
 C        -12.862888   -0.500278   -0.007113
 H        -13.663475    0.225896    0.022486
 C        -11.502856   -0.166290   -0.005396
 C        -10.545858   -1.198207   -0.045950
 C         -9.191846   -0.605590   -0.033564
 C         -9.367575    0.865381    0.015927
 C        -10.801082    1.139268    0.033370
 C        -11.442371    2.376331    0.078517
 C        -12.860338    2.523742    0.091580
 C        -10.775606    3.635693    0.117084
 C         -8.344873    1.798946    0.040301
 H         -8.652845    2.837658    0.072420
 C         -6.928995    1.705070    0.033790
 C         -6.137086    2.867648    0.067609
 H         -6.589428    3.853832    0.096786
 C         -4.756883    2.668823    0.062459
 C         -4.435915    1.291142    0.023068
 C         -3.169308    0.645555    0.007475
 C         -2.936167   -0.739061   -0.031466
 H         -3.739511   -1.466591   -0.055079
 C         -1.596200   -1.121358   -0.037968
 C         -0.708770   -0.006205   -0.002731
 C         -3.776421    3.808836    0.096272
 H         -3.127078    3.764323    0.978615
 H         -3.125433    3.815604   -0.785883
 C         -1.207394   -2.566509   -0.078852
 C         -1.071157   -3.291745    1.130800
 C         -0.792015   -4.659538    1.063267
 H         -0.694581   -5.218726    1.989864
 C         -0.646583   -5.332143   -0.155121
 C         -0.788579   -4.592433   -1.331150
 H         -0.686233   -5.105980   -2.284105
 C         -1.069291   -3.221212   -1.325099
 C         -1.255053   -2.630334    2.496484
 H         -1.295817   -1.546539    2.343890
 C         -0.080894   -2.904179    3.454869
 H         -0.008878   -3.964824    3.721051
 H          0.874240   -2.601601    3.012053
 H         -0.218107   -2.342108    4.385869
 C         -2.593634   -3.050779    3.136239
 H         -2.736456   -2.541581    4.096640
 H         -3.442022   -2.800901    2.489685
 H         -2.620359   -4.131297    3.320214
 C         -0.354540   -6.826128   -0.208442
 H         -0.292067   -7.103636   -1.269138
 C          0.999987   -7.171042    0.439112
 H          1.004071   -6.930955    1.508929
 H          1.211987   -8.241791    0.337533
 H          1.818257   -6.615973   -0.033166
 C         -1.249490   -2.487741   -2.653588
 H         -1.304705   -1.414506   -2.442255
 C         -0.063086   -2.696274   -3.613440
 H          0.025425   -3.740912   -3.932530
 H         -0.199109   -2.088633   -4.515542
 H          0.883764   -2.404868   -3.146089
 C         -2.577106   -2.887519   -3.328466
 H         -2.589610   -3.956200   -3.573037
 H         -3.434039   -2.683589   -2.677077
 H         -2.717286   -2.327052   -4.260284
 C         -1.493008   -7.653675    0.418385
 H         -1.599549   -7.440042    1.488516
 H         -2.452552   -7.437620   -0.063996
 H         -1.290726   -8.725788    0.311481
 H          4.309735   -4.763021   -0.123516
 H         -4.309791    4.763026    0.123149
