       125
S0: Total Energy = -9021.52541401
 S         18.407863   -5.238343   -0.055149
 C         20.114602   -4.856162   -0.030961
 C         20.318862   -3.473244    0.004728
 C         19.133820   -2.695862    0.013534
 C         18.017875   -3.523723   -0.016288
 S         15.135262   -3.680116   -0.044386
 C         14.358118   -2.110128   -0.011159
 C         15.306024   -1.076535    0.023234
 C         16.652083   -1.509144    0.023901
 C         16.710579   -2.899277   -0.011103
 C         18.968464    0.129527    1.717596
 H         20.045227    0.323795    1.756957
 H         18.442177    1.088276    1.765667
 H         18.688128   -0.468368    2.589257
 C         18.990651    0.212242   -1.549844
 H         18.460378    1.169949   -1.558875
 H         20.066892    0.412598   -1.562545
 H         18.726789   -0.342970   -2.454293
Ge         18.508533   -0.815582    0.055713
 S         14.527212    0.482319    0.058030
 S         22.030365   -3.118144    0.028593
 C         21.310297   -5.628967   -0.039264
 C         13.022554   -1.670574   -0.010524
 C         12.922517   -0.284541    0.024519
 C         22.417787   -4.825645   -0.009732
 H         21.353616   -6.711440   -0.065263
 H         23.455369   -5.131932   -0.007920
 H         12.160976   -2.328285   -0.033780
 C         11.703944    0.476678    0.032441
 C         11.440760    1.831001    0.075548
 S         10.149435   -0.379256   -0.021920
 C         12.228319    3.078506    0.132525
 C         10.059479    2.178990    0.068153
 C          9.186289    1.111669    0.018792
 N         11.280361    4.114258    0.156092
 O         13.436253    3.260587    0.156772
 C          9.953235    3.651338    0.120514
 C         11.644843    5.519105    0.211323
 O          8.968591    4.374480    0.133006
 H         10.721567    6.099431    0.202768
 H         12.207693    5.732192    1.124821
 H         12.259522    5.786949   -0.652838
 C          7.751710    1.017513   -0.003321
 S          6.700085    2.450906    0.019085
 C          7.010342   -0.157545   -0.044342
 C          5.277838    1.444534   -0.027379
 C          5.625221    0.085393   -0.057650
 H          7.460126   -1.143719   -0.062441
 C          3.888162    1.699089   -0.037672
 S          4.200862   -0.932387   -0.101386
 C          3.180080    0.500147   -0.076807
Ge          2.583007    3.192431   -0.011485
 C          1.736023    0.568614   -0.089602
 C          1.143555    1.829092   -0.062534
 C          2.615814    4.234215    1.654967
 C          2.651564    4.326817   -1.615049
 S          0.585505   -0.761319   -0.131159
 C         -0.263796    1.706670   -0.074815
 H          3.530882    4.832734    1.708296
 H          1.756415    4.911294    1.693712
 H          2.579267    3.570744    2.523445
 H          1.792834    5.005586   -1.634061
 H          3.567283    4.926744   -1.613658
 H          2.634730    3.714091   -2.520632
 C         -0.737221    0.386085   -0.110858
 S         -1.585319    2.842821   -0.055100
 C         -2.138833    0.274684   -0.121183
 C         -2.766733    1.514539   -0.092738
 H         -2.678954   -0.664829   -0.148143
 C         -4.185655    1.744543   -0.087416
 C         -4.952047    2.892086   -0.073330
 S         -5.287204    0.352610   -0.096018
 C         -4.708543    4.349045   -0.060061
 C         -6.360037    2.678395   -0.071115
 C         -6.752090    1.355109   -0.082366
 N         -5.982967    4.937186   -0.051632
 O         -3.664844    4.984017   -0.055768
 C         -7.027722    3.995875   -0.057170
 C         -6.191036    6.374612   -0.036801
 O         -8.215248    4.281951   -0.051153
 H         -7.267149    6.551075   -0.030614
 H         -5.737586    6.816077    0.855333
 H         -5.745059    6.833528   -0.923887
 C         -8.038349    0.712768   -0.081162
 S         -9.563647    1.626392   -0.056488
 C         -8.266099   -0.658396   -0.093765
 C        -10.484017    0.146424   -0.061555
 C         -9.636740   -0.971873   -0.082608
 H         -7.469334   -1.393236   -0.109071
 C        -11.863549   -0.158669   -0.046913
 S        -10.554387   -2.463093   -0.085582
 C        -12.050726   -1.538836   -0.056805
Ge        -13.645580    0.711085   -0.011304
 C        -13.408526   -2.036682   -0.038700
 C        -14.442854   -1.104562   -0.012031
 C        -13.994690    1.720517    1.638622
 C        -14.049004    1.745093   -1.633480
 S        -13.953419   -3.709191   -0.041521
 C        -15.692516   -1.763985    0.007271
 H        -13.380037    2.626009    1.664575
 H        -15.047958    2.015515    1.684771
 H        -13.761564    1.112822    2.517342
 H        -15.103114    2.040649   -1.640174
 H        -13.435020    2.650789   -1.666553
 H        -13.845588    1.150436   -2.528380
 C        -15.616942   -3.164608   -0.004897
 S        -17.350900   -1.230183    0.044316
 C        -16.866641   -3.811427    0.015497
 C        -17.923661   -2.911968    0.044457
 H        -17.000536   -4.887247    0.009171
 C        -19.325598   -3.243433    0.074475
 C        -20.470103   -2.469431    0.094818
 S        -19.819061   -4.951447    0.093064
 C        -20.827083   -1.034963    0.095699
 C        -21.683581   -3.217054    0.122450
 C        -21.515830   -4.565625    0.124851
 N        -22.234748   -0.998771    0.122993
 O        -20.124800   -0.036771    0.078282
 C        -22.828045   -2.273708    0.140656
 H        -22.255981   -5.354163    0.142980
 C        -22.989369    0.242430    0.132528
 O        -24.025391   -2.492062    0.165380
 H        -24.048198   -0.017122    0.165187
 H        -22.726543    0.841219    1.009272
 H        -22.778115    0.824806   -0.769010
       125
T1: Total Energy = -9021.48181717
 S         18.378271   -5.216272   -0.043432
 C         20.083553   -4.828460   -0.019747
 C         20.284050   -3.444227    0.012731
 C         19.097741   -2.670540    0.019424
 C         17.983042   -3.502469   -0.008721
 S         15.102793   -3.668221   -0.037368
 C         14.321695   -2.099527   -0.008075
 C         15.269241   -1.061733    0.024166
 C         16.613611   -1.490602    0.026188
 C         16.676146   -2.882915   -0.005461
 C         18.924939    0.158521    1.716545
 H         20.001168    0.355626    1.755877
 H         18.396097    1.115956    1.762097
 H         18.645700   -0.438155    2.589386
 C         18.947623    0.232351   -1.552228
 H         18.415096    1.188755   -1.564061
 H         20.023380    0.435199   -1.565593
 H         18.684915   -0.326326   -2.454853
Ge         18.468352   -0.791195    0.056644
 S         14.487470    0.496373    0.054612
 S         21.994683   -3.084291    0.036087
 C         21.281106   -5.597568   -0.026008
 C         12.988191   -1.665373   -0.009154
 C         12.882177   -0.274899    0.022585
 C         22.386319   -4.790610    0.001853
 H         21.327750   -6.679924   -0.049486
 H         23.424724   -5.094130    0.004581
 H         12.127977   -2.324663   -0.031377
 C         11.664113    0.472957    0.028388
 C         11.392319    1.832381    0.064810
 S         10.111994   -0.395671   -0.018610
 C         12.185426    3.081999    0.114002
 C         10.021895    2.179858    0.057544
 C          9.136168    1.099649    0.014295
 N         11.242931    4.116475    0.133369
 O         13.394961    3.255187    0.135416
 C          9.913585    3.647923    0.102238
 C         11.604511    5.522008    0.181087
 O          8.929044    4.373048    0.113020
 H         10.679495    6.099658    0.171109
 H         12.167843    5.742021    1.092762
 H         12.216734    5.788134   -0.685466
 C          7.728058    1.010851   -0.006220
 S          6.663414    2.444157    0.013869
 C          6.972526   -0.187189   -0.045294
 C          5.238072    1.421210   -0.030246
 C          5.610647    0.041973   -0.058178
 H          7.433801   -1.167872   -0.061644
 C          3.878686    1.665012   -0.040935
 S          4.193578   -1.002072   -0.100271
 C          3.146570    0.428364   -0.078310
Ge          2.578078    3.161144   -0.017393
 C          1.754281    0.494425   -0.089651
 C          1.142227    1.794751   -0.064019
 C          2.612136    4.210128    1.644871
 C          2.645115    4.294409   -1.622175
 S          0.576544   -0.830159   -0.128352
 C         -0.234202    1.681279   -0.075028
 H          3.527317    4.808863    1.694313
 H          1.752833    4.887545    1.680431
 H          2.576052    3.551199    2.516782
 H          1.786343    4.973223   -1.639810
 H          3.560778    4.894493   -1.621291
 H          2.627358    3.682022   -2.527909
 C         -0.735085    0.343523   -0.108368
 S         -1.557199    2.834817   -0.055845
 C         -2.112744    0.244153   -0.116322
 C         -2.751719    1.508236   -0.089392
 H         -2.664186   -0.688548   -0.140310
 C         -4.145295    1.729987   -0.083885
 C         -4.923959    2.890072   -0.064244
 S         -5.258661    0.333863   -0.099766
 C         -4.679421    4.342718   -0.045578
 C         -6.320842    2.674911   -0.061838
 C         -6.721274    1.347040   -0.078785
 N         -5.955473    4.935549   -0.032510
 O         -3.635549    4.979512   -0.041163
 C         -6.994282    3.994141   -0.041284
 C         -6.162706    6.372632   -0.011719
 O         -8.184111    4.271418   -0.033036
 H         -7.238775    6.549773   -0.003256
 H         -5.708268    6.811031    0.881498
 H         -5.718317    6.835557   -0.897598
 C         -8.004527    0.716346   -0.078554
 S         -9.531589    1.632067   -0.048959
 C         -8.237173   -0.658986   -0.096167
 C        -10.453129    0.151800   -0.058957
 C         -9.604806   -0.969104   -0.085077
 H         -7.441102   -1.394317   -0.114833
 C        -11.830067   -0.151806   -0.044446
 S        -10.524238   -2.460027   -0.093181
 C        -12.019970   -1.534022   -0.059671
Ge        -13.610933    0.720665   -0.004447
 C        -13.376015   -2.028648   -0.042984
 C        -14.410213   -1.094099   -0.012309
 C        -13.957681    1.723290    1.650020
 C        -14.013363    1.761587   -1.622354
 S        -13.924451   -3.700528   -0.052397
 C        -15.659880   -1.751134    0.004547
 H        -13.342046    2.627997    1.679231
 H        -15.010619    2.019073    1.698324
 H        -13.724352    1.111606    2.525917
 H        -15.067116    2.058451   -1.627622
 H        -13.398285    2.666663   -1.651744
 H        -13.810773    1.170374   -2.519705
 C        -15.586923   -3.152577   -0.013261
 S        -17.317629   -1.214585    0.044191
 C        -16.837238   -3.796916    0.004845
 C        -17.893115   -2.895462    0.037675
 H        -16.973196   -4.872436   -0.005669
 C        -19.295155   -3.224682    0.066520
 C        -20.438491   -2.448676    0.091541
 S        -19.791659   -4.932021    0.076231
 C        -20.792967   -1.013710    0.100196
 C        -21.653092   -3.194367    0.115916
 C        -21.487651   -4.543278    0.111133
 N        -22.200575   -0.975229    0.128539
 O        -20.088927   -0.016632    0.087517
 C        -22.796007   -2.249203    0.139847
 H        -22.229217   -5.330565    0.125512
 C        -22.953074    0.267184    0.145058
 O        -23.993685   -2.465751    0.164170
 H        -24.012316    0.009263    0.177229
 H        -22.688515    0.861000    1.024654
 H        -22.741551    0.853831   -0.753643
       125
S1: Total Energy = -9021.46478194
 S         18.373762   -5.227598   -0.047665
 C         20.078767   -4.839664   -0.024748
 C         20.280477   -3.453649    0.007673
 C         19.097313   -2.680032    0.014932
 C         17.979069   -3.512977   -0.012696
 S         15.102114   -3.677458   -0.040062
 C         14.324128   -2.106648   -0.010205
 C         15.276171   -1.068252    0.021834
 C         16.615852   -1.498228    0.023172
 C         16.677172   -2.894705   -0.008735
 C         18.929835    0.148620    1.712468
 H         20.006437    0.343612    1.751346
 H         18.402871    1.107048    1.758132
 H         18.649596   -0.447786    2.585125
 C         18.949646    0.221432   -1.558418
 H         18.418322    1.178461   -1.570360
 H         20.025621    0.422839   -1.573199
 H         18.684939   -0.337979   -2.459964
Ge         18.471510   -0.798924    0.052306
 S         14.496052    0.491982    0.052502
 S         21.991893   -3.094915    0.030291
 C         21.274850   -5.608436   -0.031484
 C         12.994189   -1.672371   -0.010815
 C         12.889076   -0.278129    0.021079
 C         22.380919   -4.801104   -0.004079
 H         21.321606   -6.690729   -0.054935
 H         23.418971   -5.105954   -0.001787
 H         12.132694   -2.329835   -0.032874
 C         11.674808    0.468216    0.027493
 C         11.402977    1.829985    0.062415
 S         10.118710   -0.396317   -0.016186
 C         12.197275    3.079102    0.108894
 C         10.034455    2.177132    0.056289
 C          9.148215    1.100076    0.015813
 N         11.256412    4.114999    0.127855
 O         13.407036    3.249974    0.128682
 C          9.927179    3.647024    0.099040
 C         11.619264    5.520362    0.173038
 O          8.943187    4.371936    0.109850
 H         10.694657    6.098676    0.163910
 H         12.184269    5.741135    1.083478
 H         12.230047    5.784864   -0.695023
 C          7.734361    1.012503   -0.002779
 S          6.675211    2.448248    0.015240
 C          6.981158   -0.175356   -0.037937
 C          5.250680    1.434085   -0.024648
 C          5.611330    0.061697   -0.049713
 H          7.436115   -1.159058   -0.052674
 C          3.879345    1.682851   -0.034274
 S          4.189583   -0.967310   -0.087265
 C          3.157067    0.465189   -0.067512
Ge          2.576640    3.178253   -0.013418
 C          1.743094    0.531557   -0.078379
 C          1.139046    1.812459   -0.056340
 C          2.611353    4.228297    1.647868
 C          2.642985    4.305706   -1.622013
 S          0.578593   -0.795421   -0.112741
 C         -0.248901    1.697165   -0.066920
 H          3.526385    4.827253    1.696620
 H          1.751715    4.905230    1.683494
 H          2.575813    3.569555    2.519933
 H          1.783881    4.983982   -1.641930
 H          3.558486    4.905972   -1.623780
 H          2.624998    3.689664   -2.525250
 C         -0.738812    0.364763   -0.096368
 S         -1.571593    2.843542   -0.051123
 C         -2.124094    0.257841   -0.104471
 C         -2.762922    1.513704   -0.081481
 H         -2.670444   -0.677822   -0.125820
 C         -4.159267    1.732713   -0.077696
 C         -4.941871    2.890679   -0.061642
 S         -5.268519    0.331932   -0.091612
 C         -4.694164    4.346518   -0.046041
 C         -6.333176    2.679006   -0.060362
 C         -6.738937    1.343934   -0.074529
 N         -5.966113    4.941488   -0.036162
 O         -3.647422    4.977817   -0.041600
 C         -7.005352    3.996818   -0.043991
 C         -6.174098    6.378212   -0.019225
 O         -8.194549    4.276695   -0.037975
 H         -7.250418    6.554211   -0.012798
 H         -5.721941    6.819834    0.873669
 H         -5.729370    6.839942   -0.905666
 C         -8.011566    0.719262   -0.073939
 S         -9.544591    1.633518   -0.049501
 C         -8.247086   -0.665390   -0.087520
 C        -10.464739    0.148271   -0.055883
 C         -9.606268   -0.975139   -0.077304
 H         -7.448615   -1.398050   -0.102737
 C        -11.831704   -0.157005   -0.042440
 S        -10.522022   -2.471148   -0.082009
 C        -12.023587   -1.549030   -0.053493
Ge        -13.613462    0.714434   -0.008018
 C        -13.367470   -2.039336   -0.037371
 C        -14.410196   -1.100642   -0.011424
 C        -13.962799    1.723551    1.642216
 C        -14.013129    1.751638   -1.629239
 S        -13.920244   -3.713036   -0.042001
 C        -15.653569   -1.754687    0.005367
 H        -13.347281    2.628448    1.668597
 H        -15.015885    2.019286    1.687712
 H        -13.730666    1.115428    2.520885
 H        -15.067001    2.048048   -1.637116
 H        -13.398242    2.656847   -1.659242
 H        -13.808584    1.158592   -2.524914
 C        -15.583178   -3.161535   -0.007598
 S        -17.313780   -1.217282    0.039860
 C        -16.829564   -3.802825    0.010162
 C        -17.890177   -2.899727    0.037809
 H        -16.966808   -4.878206    0.003023
 C        -19.286833   -3.228530    0.064390
 C        -20.434189   -2.452293    0.084666
 S        -19.783551   -4.938602    0.077847
 C        -20.790314   -1.020680    0.088026
 C        -21.646676   -3.200525    0.108474
 C        -21.480318   -4.549547    0.107913
 N        -22.200152   -0.984108    0.113272
 O        -20.089894   -0.019964    0.073691
 C        -22.792378   -2.258018    0.127056
 H        -22.221833   -5.336870    0.122894
 C        -22.954174    0.257003    0.124218
 O        -23.989984   -2.478589    0.149391
 H        -24.013210   -0.002100    0.155764
 H        -22.691898    0.854720    1.001949
 H        -22.742397    0.841152   -0.776159
