       130
S0: Total Energy = -8825.08396456
 C        -15.864496    1.277681    0.019575
 C        -16.009358    2.559629   -0.445496
 C        -17.313985    3.112303   -0.235868
 C        -18.178002    2.198905    0.433030
 S        -17.363927    0.680258    0.770791
 C        -21.413093    5.597629    0.111854
 C        -21.297049    4.332410    0.589870
 C        -19.982603    3.777374    0.389768
 C        -19.118303    4.692290   -0.278613
 S        -19.938952    6.211389   -0.616494
 C        -17.800379    4.380836   -0.601571
 C        -19.496676    2.508563    0.751805
 H        -15.210708    3.103441   -0.936554
 H        -22.108265    3.790045    1.060958
 H        -22.289128    6.232880    0.135344
 O        -20.303749    1.579420    1.368588
 O        -16.989724    5.302724   -1.222883
 C        -20.375686    1.706643    2.798117
 H        -19.385307    1.589310    3.253037
 H        -20.795169    2.677237    3.087311
 H        -21.033544    0.906022    3.141440
 C        -16.954735    5.197305   -2.655911
 H        -16.562911    4.222737   -2.969678
 H        -17.952816    5.342977   -3.084828
 H        -16.288075    5.989274   -3.002156
 C        -14.650867    0.480667    0.008065
 C        -14.475233   -0.893320   -0.078990
 S        -13.108558    1.359857    0.123757
 C        -13.088968   -1.218054   -0.060081
 C        -15.552878   -1.935998   -0.210647
 C        -12.218974   -0.133854    0.030649
 S        -12.219955   -2.725936   -0.156735
 H        -16.463701   -1.530647   -0.656491
 H        -15.206258   -2.760681   -0.843341
 H        -15.818702   -2.363703    0.764523
 C        -10.855575   -0.487176    0.021011
 C        -10.669609   -1.859404   -0.074587
 H        -10.038232    0.222627    0.078267
 C         -9.402240   -2.541368   -0.107439
 C         -9.052993   -3.870202   -0.222269
 S         -7.907510   -1.591659    0.009845
 C         -9.758908   -5.162165   -0.353107
 C         -7.652704   -4.128938   -0.224491
 C         -6.851032   -3.012716   -0.109360
 N         -8.746784   -6.130831   -0.429571
 O        -10.951943   -5.417968   -0.392452
 C         -7.452308   -5.587095   -0.359776
 C         -5.423612   -2.828000   -0.075382
 C         -9.020250   -7.551081   -0.565330
 O         -6.423915   -6.242931   -0.407409
 S         -4.284365   -4.189660   -0.170316
 C         -4.760189   -1.613110    0.031504
 H         -8.061746   -8.070705   -0.580847
 H         -9.620843   -7.904202    0.277588
 H         -9.563648   -7.747838   -1.493939
 C         -2.934548   -3.091918   -0.066132
 C         -3.360553   -1.769677    0.038059
 H         -5.269907   -0.658699    0.098709
 C         -1.524251   -3.283071   -0.089256
 S         -1.996843   -0.692417    0.140410
 C         -0.869031   -2.062644    0.008932
 C         -0.890580   -4.641067   -0.233432
 H          0.081588   -4.589775   -0.728904
 H         -0.744009   -5.122138    0.742050
 H         -1.535438   -5.298578   -0.826585
 C          0.547942   -1.751692    0.018889
 C          1.135301   -0.582197   -0.394896
 S          1.746805   -2.882350    0.692392
 C          2.552662   -0.541739   -0.203953
 H          0.576764    0.235367   -0.835664
 C          3.044108   -1.737581    0.395006
 C          3.454847    0.489367   -0.528945
 C          4.390382   -1.936078    0.682076
 C          4.801145    0.290987   -0.241721
 O          3.019194    1.672589   -1.078655
 C          5.292818   -0.905765    0.355516
 O          4.825342   -3.119779    1.231294
 S          6.099193    1.434564   -0.541335
 C          2.911494    1.662276   -2.512458
 C          6.711288   -0.867696    0.541298
 C          4.941531   -3.107357    2.664396
 C          7.298185    0.301206    0.126677
 H          3.883711    1.462720   -2.977491
 H          2.187124    0.910926   -2.847403
 H          2.566167    2.657696   -2.797467
 H          7.271314   -1.686426    0.977980
 H          5.670457   -2.358024    2.993893
 H          3.972711   -2.903552    3.134674
 H          5.285017   -4.103496    2.949119
 C          8.716582    0.608781    0.124172
 C          9.376093    1.822884    0.257584
 S          9.837192   -0.756870   -0.086732
 C         10.785438    1.630851    0.194998
 C          8.747719    3.173951    0.471200
 C         11.205512    0.313484    0.026263
 S         12.140471    2.720944    0.313791
 H          7.766405    3.099918    0.944894
 H          9.385900    3.790931    1.113406
 H          8.622503    3.712669   -0.476776
 C         12.604869    0.155006   -0.010129
 C         13.273273    1.363418    0.128978
 H         13.110546   -0.796340   -0.130367
 C         14.701611    1.546944    0.123216
 C         15.507715    2.653570    0.281751
 S         15.751053    0.138328   -0.130210
 C         15.317756    4.100160    0.518366
 C         16.907334    2.396766    0.211437
 C         17.250216    1.079542   -0.007916
 N         16.611854    4.637760    0.581917
 O         14.298220    4.760526    0.641457
 C         17.622175    3.675498    0.406017
 C         18.514124    0.401653   -0.144445
 C         16.871152    6.049605    0.804328
 O         18.818091    3.919201    0.423474
 S         20.070993    1.255270   -0.040391
 C         18.691748   -0.955356   -0.368363
 H         17.952724    6.187664    0.813789
 H         16.427457    6.649009    0.004251
 H         16.447663    6.367952    1.761111
 C         20.930081   -0.236472   -0.300937
 C         20.054523   -1.308562   -0.455665
 H         17.870455   -1.656617   -0.463962
 C         22.317576   -0.576050   -0.385684
 S         20.936267   -2.794383   -0.715734
 C         22.452440   -1.922091   -0.607025
 C         23.452060    0.400115   -0.251276
 H         23.379306   -2.470713   -0.716245
 H         24.418451   -0.102305   -0.347036
 H         23.396354    1.179713   -1.021171
 H         23.426160    0.904371    0.722685
       130
T1: Total Energy = -8825.03371704
 C         15.805604   -1.309929   -0.038254
 C         15.923419   -2.607834   -0.473282
 C         17.229922   -3.164975   -0.303767
 C         18.129004   -2.240827    0.301582
 S         17.343823   -0.704592    0.626788
 C         21.319502   -5.677997   -0.052964
 C         21.233488   -4.398406    0.392622
 C         19.916802   -3.837231    0.230647
 C         19.018000   -4.762832   -0.374824
 S         19.811701   -6.298582   -0.702068
 C         17.690615   -4.448630   -0.652180
 C         19.456620   -2.553546    0.574866
 H         15.101822   -3.160590   -0.913864
 H         22.067846   -3.850448    0.814210
 H         22.190610   -6.320383   -0.046916
 O         20.296484   -1.614843    1.130397
 O         16.847364   -5.380188   -1.212336
 C         20.424940   -1.700662    2.559080
 H         19.454916   -1.559255    3.049606
 H         20.846320   -2.666869    2.859965
 H         21.103860   -0.897487    2.851681
 C         16.751617   -5.313759   -2.645048
 H         16.355341   -4.344271   -2.968691
 H         17.729094   -5.481119   -3.111812
 H         16.063728   -6.108233   -2.940231
 C         14.601837   -0.506173   -0.026553
 C         14.436841    0.876305   -0.031684
 S         13.047147   -1.374570    0.002166
 C         13.058215    1.212798   -0.020971
 C         15.528126    1.913396   -0.069718
 C         12.173239    0.132150   -0.015031
 S         12.205478    2.735193   -0.033853
 H         16.390812    1.578702   -0.651227
 H         15.156781    2.838018   -0.523825
 H         15.882371    2.164066    0.938177
 C         10.818298    0.495300   -0.023702
 C         10.641072    1.880479   -0.033444
 H          9.993275   -0.207507   -0.024445
 C          9.387011    2.560007   -0.040024
 C          9.041625    3.906549   -0.060901
 S          7.881362    1.604815   -0.020893
 C          9.774748    5.197171   -0.080223
 C          7.662431    4.184489   -0.064361
 C          6.825319    3.053059   -0.044523
 N          8.785767    6.182509   -0.095736
 O         10.974634    5.425279   -0.082052
 C          7.480288    5.644373   -0.086953
 C          5.434208    2.893162   -0.039677
 C          9.076610    7.604757   -0.117254
 O          6.461875    6.320458   -0.096975
 S          4.292139    4.273614   -0.070148
 C          4.736043    1.650814   -0.010621
 H          8.123408    8.134552   -0.116985
 H          9.658404    7.889296    0.764267
 H          9.644453    7.866078   -1.015029
 C          2.925896    3.164439   -0.043854
 C          3.368226    1.813142   -0.012581
 H          5.246725    0.695322    0.011959
 C          1.554280    3.357430   -0.045467
 S          2.004232    0.720473    0.015777
 C          0.856561    2.105892   -0.012697
 C          0.903694    4.712692   -0.075667
 H          0.276233    4.841822   -0.965153
 H          0.269189    4.877419    0.802703
 H          1.661448    5.501132   -0.088893
 C         -0.518513    1.821750    0.000059
 C         -1.102597    0.539877    0.049575
 S         -1.789278    3.080651   -0.049788
 C         -2.507780    0.537435    0.046683
 H         -0.514079   -0.367978    0.107455
 C         -3.057139    1.860984    0.014658
 C         -3.391325   -0.575392    0.092042
 C         -4.414004    2.109619    0.038888
 C         -4.752520   -0.323245    0.115352
 O         -2.913403   -1.860235    0.153849
 C         -5.296978    0.996347    0.083194
 O         -4.899667    3.393802   -0.021066
 S         -6.021926   -1.534576    0.182778
 C         -2.548679   -2.431529   -1.116223
 C         -6.710855    0.990712    0.087426
 C         -5.218741    3.973572    1.256519
 C         -7.279674   -0.274004    0.140012
 H         -3.417486   -2.485355   -1.781813
 H         -1.755569   -1.848719   -1.597498
 H         -2.186579   -3.438172   -0.901076
 H         -7.298263    1.900595    0.046510
 H         -5.994032    3.393696    1.769997
 H         -4.327554    4.032899    1.891473
 H         -5.589271    4.978714    1.048184
 C         -8.682151   -0.581098    0.141423
 C         -9.345806   -1.802222    0.301768
 S         -9.820910    0.773714   -0.094764
 C        -10.748455   -1.620231    0.233931
 C         -8.705866   -3.146476    0.526389
 C        -11.178796   -0.307564    0.029826
 S        -12.100375   -2.716896    0.362805
 H         -8.020456   -3.134140    1.380643
 H         -9.468540   -3.904295    0.727414
 H         -8.136734   -3.478088   -0.350148
 C        -12.574070   -0.158901   -0.027499
 C        -13.239112   -1.370365    0.133913
 H        -13.084484    0.785583   -0.177469
 C        -14.662864   -1.561029    0.121577
 C        -15.464441   -2.672056    0.288874
 S        -15.720694   -0.161552   -0.154722
 C        -15.266578   -4.113652    0.544935
 C        -16.863753   -2.425032    0.205634
 C        -17.214223   -1.112277   -0.032631
 N        -16.557467   -4.659655    0.605477
 O        -14.243138   -4.765152    0.684445
 C        -17.572259   -3.706255    0.410733
 C        -18.481207   -0.445578   -0.186609
 C        -16.809132   -6.070193    0.844408
 O        -18.766780   -3.956763    0.422573
 S        -20.033452   -1.307493   -0.078134
 C        -18.666397    0.907154   -0.431970
 H        -17.889721   -6.216081    0.843527
 H        -16.352063   -6.677092    0.057660
 H        -16.394460   -6.372485    1.810242
 C        -20.900300    0.174726   -0.365387
 C        -20.030609    1.250136   -0.531715
 H        -17.849059    1.612127   -0.533963
 C        -22.289302    0.503959   -0.462929
 S        -20.920450    2.726090   -0.819387
 C        -22.431475    1.845642   -0.705580
 C        -23.418381   -0.477188   -0.319659
 H        -23.361269    2.386447   -0.828103
 H        -24.387255    0.017325   -0.430188
 H        -23.352512   -1.269121   -1.076020
 H        -23.395788   -0.964913    0.662762
       130
S1: Total Energy = -8825.01660935
 C         15.819608   -1.293936    0.036780
 C         15.902804   -2.667021   -0.068484
 C         17.229880   -3.182832    0.003057
 C         18.195576   -2.150812    0.185267
 S         17.438032   -0.567842    0.235377
 C         21.368125   -5.622834    0.180667
 C         21.324871   -4.269432    0.290450
 C         19.986311   -3.745472    0.221566
 C         19.021730   -4.779260    0.039498
 S         19.789007   -6.361978   -0.015102
 C         17.659169   -4.523289   -0.075864
 C         19.556660   -2.406993    0.298555
 H         15.036003   -3.306424   -0.189190
 H         22.204243   -3.646812    0.405636
 H         22.244755   -6.257345    0.200414
 O         20.454381   -1.373141    0.440837
 O         16.757944   -5.551776   -0.221603
 C         20.830804   -1.093099    1.799142
 H         19.957293   -0.810495    2.398016
 H         21.321519   -1.958658    2.259149
 H         21.530277   -0.256250    1.753947
 C         16.404418   -5.848571   -1.583258
 H         15.931197   -4.984859   -2.064447
 H         17.286448   -6.148623   -2.160558
 H         15.695923   -6.677731   -1.538654
 C         14.617923   -0.501458    0.019503
 C         14.441200    0.885889   -0.003232
 S         13.060479   -1.373420    0.027117
 C         13.066302    1.215887   -0.017764
 C         15.529928    1.926816   -0.019208
 C         12.182714    0.130789   -0.009095
 S         12.203380    2.735019   -0.050056
 H         16.243250    1.758350   -0.832838
 H         15.102761    2.924379   -0.156665
 H         16.095436    1.938542    0.919954
 C         10.828809    0.484404   -0.028451
 C         10.642503    1.871220   -0.051851
 H         10.007608   -0.222827   -0.026264
 C          9.389089    2.544761   -0.073317
 C          9.034811    3.889795   -0.100871
 S          7.884416    1.585715   -0.066092
 C          9.753713    5.184119   -0.118151
 C          7.650510    4.154396   -0.116287
 C          6.826944    3.026095   -0.100744
 N          8.753961    6.163674   -0.144828
 O         10.950523    5.428261   -0.111399
 C          7.455980    5.615969   -0.144728
 C          5.421921    2.853783   -0.106174
 C          9.034611    7.587690   -0.169521
 O          6.430301    6.280238   -0.164707
 S          4.280807    4.227892   -0.143146
 C          4.739708    1.623511   -0.083122
 H          8.077800    8.110911   -0.177550
 H          9.608623    7.879531    0.714732
 H          9.606787    7.849979   -1.064309
 C          2.920973    3.122720   -0.126061
 C          3.356884    1.783768   -0.094194
 H          5.249382    0.667487   -0.058387
 C          1.533299    3.312977   -0.135337
 S          1.996995    0.694452   -0.076273
 C          0.852751    2.073361   -0.109128
 C          0.888409    4.671850   -0.167761
 H          0.267353    4.806028   -1.060993
 H          0.249646    4.839481    0.706986
 H          1.649571    5.457022   -0.175300
 C         -0.534434    1.779360   -0.104886
 C         -1.113212    0.504884   -0.062573
 S         -1.796404    3.039354   -0.157355
 C         -2.518094    0.500721   -0.074337
 H         -0.524622   -0.403112   -0.005292
 C         -3.066961    1.824726   -0.104290
 C         -3.404632   -0.614003   -0.037263
 C         -4.423080    2.076109   -0.081481
 C         -4.761249   -0.361661   -0.014545
 O         -2.927692   -1.898763    0.021073
 C         -5.308686    0.961693   -0.042325
 O         -4.904062    3.359886   -0.139070
 S         -6.032430   -1.575099    0.039293
 C         -2.533821   -2.457561   -1.246292
 C         -6.715119    0.957374   -0.049235
 C         -5.264379    3.927787    1.133980
 C         -7.291678   -0.314211   -0.006231
 H         -3.388602   -2.508129   -1.929932
 H         -1.732835   -1.868306   -1.705908
 H         -2.173062   -3.464745   -1.031882
 H         -7.302622    1.866492   -0.102012
 H         -6.053983    3.342223    1.617749
 H         -4.392642    3.982184    1.795540
 H         -5.629653    4.933938    0.922267
 C         -8.684181   -0.608618    0.005513
 C         -9.360659   -1.844639    0.028614
 S         -9.824277    0.770964   -0.008630
 C        -10.753598   -1.651198    0.032349
 C         -8.719176   -3.205543    0.046275
 C        -11.184417   -0.315315    0.013470
 S        -12.112745   -2.752233    0.053931
 H         -8.096938   -3.350463    0.936994
 H         -9.482206   -3.988956    0.047580
 H         -8.082647   -3.366451   -0.831264
 C        -12.572594   -0.154896    0.016367
 C        -13.248566   -1.379564    0.037771
 H        -13.080814    0.802337    0.003242
 C        -14.663978   -1.557190    0.047456
 C        -15.475717   -2.682211    0.063451
 S        -15.721168   -0.124542    0.039745
 C        -15.283084   -4.144355    0.076011
 C        -16.869567   -2.418502    0.068936
 C        -17.219148   -1.080734    0.057641
 N        -16.577835   -4.690142    0.088904
 O        -14.262186   -4.816279    0.076241
 C        -17.586135   -3.713496    0.085532
 C        -18.482089   -0.397349    0.058563
 C        -16.834626   -6.119337    0.104673
 O        -18.783143   -3.953448    0.094983
 S        -20.040301   -1.258668    0.080309
 C        -18.663582    0.980311    0.044094
 H        -17.915987   -6.259270    0.119988
 H        -16.412357   -6.592851   -0.786345
 H        -16.388845   -6.576653    0.992607
 C        -20.901087    0.255257    0.069691
 C        -20.025564    1.339894    0.050458
 H        -17.842779    1.688292    0.029577
 C        -22.288132    0.602839    0.076292
 S        -20.909608    2.847573    0.039837
 C        -22.424943    1.967375    0.061645
 C        -23.422710   -0.382279    0.096545
 H        -23.352913    2.524913    0.062545
 H        -24.389253    0.128928    0.096794
 H        -23.387983   -1.043297   -0.778300
 H        -23.375721   -1.021065    0.987203
