       149
S0: Total Energy = -8608.66230851
 C         18.582763   -0.249374    0.039726
 C         19.271915   -1.453792    0.108296
 S         19.710180    1.092936    0.023633
 C         20.667676   -1.312593    0.148086
 H         18.773167   -2.416774    0.130256
 C         21.102875    0.010069    0.111569
 H         21.366640   -2.141216    0.203801
 C         22.475062    0.420171    0.144147
 C         23.601951   -0.406648    0.216766
 N         22.945503    1.732923    0.111828
 C         23.999494   -1.791597    0.284590
 C         24.773689    0.396982    0.230688
 C         24.375520    1.783514    0.164035
 C         22.184339    2.967925    0.033236
 N         25.431125   -1.739804    0.338293
 O         23.373704   -2.853394    0.299824
 C         25.898756   -0.428564    0.305803
 O         25.001909    2.844205    0.148291
 H         22.917078    3.776496    0.023327
 H         21.529884    3.092036    0.901567
 H         21.590573    3.015022   -0.884798
 C         26.193007   -2.974639    0.416662
 C         27.278315   -0.017309    0.342455
 H         25.461018   -3.783828    0.421512
 H         26.851549   -3.094925   -0.448988
 H         26.783586   -3.023095    1.336611
 C         27.711976    1.301817    0.303923
 S         28.668283   -1.099895    0.442515
 H         27.015133    2.131442    0.241912
 C         29.120440    1.435551    0.353375
 C         29.770453    0.230028    0.429645
 H         29.634525    2.389966    0.333224
 H         30.834837    0.041629    0.479138
 C         17.164800   -0.024904   -0.012830
 C         16.486567    1.182998   -0.072494
 S         16.051728   -1.418772    0.001070
 C         15.088937    0.998501   -0.107006
 H         16.989865    2.143069   -0.085043
 C         14.680347   -0.351593   -0.068374
 C         13.277007   -0.353243   -0.101843
 C         12.867490    0.995857   -0.159646
 S         11.906369   -1.423716   -0.099245
 C         11.469260    1.177227   -0.193352
 C         10.791893   -0.032436   -0.168237
 H         10.964793    2.135960   -0.233606
 C          9.373944   -0.261023   -0.186322
 S          8.243165    1.078956   -0.189538
 C          8.686527   -1.468355   -0.201210
 C          6.851659   -0.009123   -0.213863
 C          7.290089   -1.331669   -0.216595
 H          9.187452   -2.430494   -0.203943
 C          5.478752    0.397073   -0.225480
 H          6.592264   -2.162935   -0.230212
 C          4.351068   -0.433807   -0.238901
 N          5.004662    1.708869   -0.222890
 C          3.179007    0.365835   -0.243076
 C          3.955727   -1.822361   -0.246598
 C          3.574183    1.754230   -0.233468
 C          5.763576    2.947629   -0.211712
 C          2.051155   -0.465274   -0.251683
 N          2.525307   -1.777046   -0.254708
 O          4.586102   -2.881669   -0.247499
 O          2.943940    2.813734   -0.233662
 H          5.028647    3.754248   -0.215910
 H          6.379435    3.032611    0.688969
 H          6.396338    3.038267   -1.100003
 C          0.678483   -0.059214   -0.253667
 C          1.766220   -3.015731   -0.266097
 S         -0.713851   -1.146865   -0.254829
 C          0.240448    1.263603   -0.250369
 H          2.501000   -3.822476   -0.270641
 H          1.143954   -3.096207   -1.162718
 H          1.139779   -3.110569    0.626268
 C         -1.844060    0.193688   -0.252488
 C         -1.155788    1.400888   -0.249676
 H          0.938730    2.094617   -0.248489
 C         -3.262017   -0.033623   -0.251093
 H         -1.656307    2.363227   -0.249279
 C         -3.940667   -1.242578   -0.284610
 S         -4.375985    1.358777   -0.193541
 C         -5.338757   -1.059851   -0.265716
 H         -3.436796   -2.201852   -0.319358
 C         -5.747556    0.289745   -0.211298
 C         -7.151092    0.289646   -0.191789
 C         -7.560819   -1.059821   -0.234980
 S         -8.522240    1.358320   -0.135220
 C         -8.959169   -1.243022   -0.214335
 C         -9.636790   -0.034511   -0.160959
 H         -9.463365   -2.202500   -0.233202
 C        -11.054745    0.192156   -0.122249
 S        -12.184343   -1.149096   -0.128107
 C        -11.743191    1.397815   -0.075277
 C        -13.576538   -0.063428   -0.066788
 C        -13.139459    1.259137   -0.044712
 H        -11.243431    2.360520   -0.063442
 C        -14.948949   -0.472330   -0.040725
 H        -13.837833    2.089162   -0.006757
 C        -16.077150    0.355669    0.008453
 N        -15.421289   -1.784843   -0.057392
 C        -17.247993   -0.446346    0.022921
 C        -16.474605    1.743003    0.048926
 C        -16.851476   -1.833026   -0.018358
 C        -14.661226   -3.021763   -0.107830
 C        -18.376885    0.382506    0.071367
 N        -17.904488    1.694903    0.086971
 O        -15.846055    2.803425    0.054205
 O        -17.479780   -2.894092   -0.023415
 H        -15.395155   -3.829348   -0.109746
 H        -14.059608   -3.085907   -1.019789
 H        -14.014124   -3.131453    0.767975
 C        -19.748371   -0.025402    0.099512
 C        -18.665010    2.931663    0.137917
 S        -21.142726    1.059519    0.158041
 C        -20.185239   -1.348195    0.084171
 H        -17.931706    3.739767    0.140388
 H        -19.266908    2.994671    1.049715
 H        -19.312029    3.041140   -0.737910
 C        -22.270987   -0.282412    0.155191
 C        -21.581309   -1.487890    0.115297
 H        -19.486361   -2.178024    0.048342
 C        -23.689631   -0.056490    0.190993
 H        -22.080843   -2.450645    0.104285
 C        -24.371081    1.149955    0.176909
 S        -24.801831   -1.449411    0.266669
 C        -25.769937    0.964400    0.223611
 H        -23.869966    2.110530    0.133304
 C        -26.174575   -0.383262    0.280564
 C        -27.583052   -0.385887    0.324522
 C        -27.992609    0.959241    0.292763
 S        -28.959916   -1.451398    0.397551
 C        -29.404997    1.137284    0.334529
 C        -30.046808   -0.070348    0.391539
 H        -29.922578    2.089440    0.326773
 H        -31.113176   -0.246747    0.433611
 N         13.978209    1.819482   -0.177158
 N         -6.450494   -1.882091   -0.294740
 N        -26.885212    1.784335    0.216697
 C         13.975494    3.272597   -0.147433
 H         13.109878    3.644723   -0.700298
 H         13.938329    3.656205    0.878671
 H         14.878246    3.645695   -0.636347
 C         -6.450038   -3.335189   -0.265437
 H         -5.577028   -3.708098   -0.805999
 H         -6.427934   -3.719227    0.760955
 H         -7.346115   -3.707183   -0.767349
 C        -26.886015    3.236435    0.255072
 H        -26.829557    3.615693    1.282264
 H        -26.032869    3.615853   -0.312578
 H        -27.799844    3.609780   -0.212768
       149
T1: Total Energy = -8608.63370699
 C         18.563740   -0.234011    0.033408
 C         19.252990   -1.442162    0.088282
 S         19.695572    1.107005    0.029129
 C         20.646537   -1.304423    0.127152
 H         18.752063   -2.404201    0.101387
 C         21.086278    0.019407    0.103559
 H         21.344172   -2.134772    0.173374
 C         22.457372    0.423971    0.137806
 C         23.583282   -0.407702    0.200986
 N         22.933675    1.735649    0.116733
 C         23.976558   -1.794511    0.255550
 C         24.756700    0.391553    0.220171
 C         24.362878    1.780455    0.166791
 C         22.176777    2.973944    0.050432
 N         25.408125   -1.747965    0.307325
 O         23.347161   -2.854655    0.262221
 C         25.880320   -0.438201    0.285850
 O         24.993819    2.838719    0.159620
 H         22.912296    3.780040    0.046463
 H         21.524187    3.092627    0.920933
 H         21.581598    3.031255   -0.866123
 C         26.165959   -2.985953    0.373523
 C         27.260731   -0.031604    0.323667
 H         25.431262   -3.792696    0.372726
 H         26.822540   -3.100884   -0.494355
 H         26.758139   -3.044280    1.291883
 C         27.698927    1.286537    0.296448
 S         28.647613   -1.119663    0.410848
 H         27.004626    2.118902    0.243402
 C         29.107855    1.415087    0.344346
 C         29.754257    0.206869    0.408192
 H         29.625007    2.367997    0.332022
 H         30.818109    0.014574    0.453842
 C         17.150682   -0.008465   -0.014156
 C         16.471490    1.204284   -0.054936
 S         16.034097   -1.401816   -0.020544
 C         15.078021    1.023270   -0.090759
 H         16.977044    2.163189   -0.052671
 C         14.664133   -0.330219   -0.072305
 C         13.266485   -0.329761   -0.103829
 C         12.855023    1.025815   -0.139897
 S         11.895684   -1.402079   -0.115571
 C         11.464798    1.211502   -0.165594
 C         10.777099   -0.004503   -0.157992
 H         10.960918    2.170890   -0.186278
 C          9.375610   -0.223435   -0.174968
 S          8.239458    1.126018   -0.190074
 C          8.674290   -1.438360   -0.180899
 C          6.840096    0.032567   -0.203312
 C          7.293577   -1.307137   -0.197028
 H          9.177542   -2.399576   -0.174462
 C          5.494091    0.427165   -0.214689
 H          6.595630   -2.137809   -0.204289
 C          4.337660   -0.422642   -0.224391
 N          4.990799    1.730780   -0.215718
 C          3.186033    0.353523   -0.229353
 C          3.949782   -1.825976   -0.231252
 C          3.574280    1.756826   -0.224080
 C          5.735863    2.979087   -0.207470
 C          2.029616   -0.496285   -0.237983
 N          2.533584   -1.800109   -0.240199
 O          4.604473   -2.871583   -0.230386
 O          2.920196    2.802682   -0.225923
 H          4.994520    3.779399   -0.211307
 H          6.352687    3.068185    0.691764
 H          6.366089    3.071950   -1.096975
 C          0.684120   -0.101948   -0.239495
 C          1.788681   -3.048489   -0.250000
 S         -0.715479   -1.195340   -0.246205
 C          0.230324    1.238414   -0.231641
 H          2.530188   -3.848664   -0.252955
 H          1.167704   -3.133864   -1.146718
 H          1.162575   -3.145363    0.642005
 C         -1.852088    0.154607   -0.236310
 C         -1.149693    1.369825   -0.229379
 H          0.928399    2.068939   -0.227192
 C         -3.252432   -0.063235   -0.234059
 H         -1.652862    2.331092   -0.223195
 C         -3.941466   -1.279589   -0.248924
 S         -4.371234    1.335152   -0.202750
 C         -5.330780   -1.093309   -0.236757
 H         -3.437739   -2.239142   -0.264298
 C         -5.742558    0.263180   -0.204563
 C         -7.139515    0.264309   -0.185968
 C         -7.554384   -1.089542   -0.207786
 S         -8.509646    1.336776   -0.146933
 C         -8.947516   -1.270113   -0.184355
 C         -9.627291   -0.056532   -0.150289
 H         -9.453614   -2.228700   -0.186947
 C        -11.039281    0.169548   -0.115780
 S        -12.172868   -1.171215   -0.114180
 C        -11.729149    1.378733   -0.078863
 C        -13.563692   -0.081833   -0.062833
 C        -13.122263    1.242661   -0.049750
 H        -11.227634    2.340608   -0.072663
 C        -14.933801   -0.485608   -0.036093
 H        -13.819803    2.073691   -0.018725
 C        -16.062051    0.346866    0.005909
 N        -15.412189   -1.796977   -0.044873
 C        -17.233606   -0.450671    0.023709
 C        -16.455630    1.735967    0.036962
 C        -16.841050   -1.839707   -0.007877
 C        -14.656271   -3.036780   -0.086649
 C        -18.361996    0.381914    0.065135
 N        -17.885077    1.692669    0.073093
 O        -15.823362    2.794529    0.036424
 O        -17.474156   -2.898042   -0.007122
 H        -15.392837   -3.841950   -0.084841
 H        -14.053455   -3.108374   -0.997256
 H        -14.010911   -3.143299    0.790821
 C        -19.733379   -0.022040    0.093547
 C        -18.641805    2.932109    0.115076
 S        -21.125300    1.067076    0.142521
 C        -20.174305   -1.344339    0.086134
 H        -17.906055    3.737972    0.113748
 H        -19.245035    3.002484    1.025446
 H        -19.287059    3.037993   -0.762488
 C        -22.257277   -0.272187    0.147245
 C        -21.570241   -1.479892    0.116174
 H        -19.477485   -2.176138    0.056942
 C        -23.674886   -0.042771    0.179738
 H        -22.072371   -2.441364    0.111123
 C        -24.353585    1.165503    0.162212
 S        -24.790862   -1.432949    0.255461
 C        -25.752798    0.983382    0.206385
 H        -23.850033    2.124783    0.118395
 C        -26.160943   -0.363307    0.264953
 C        -27.569371   -0.362357    0.306454
 C        -27.975620    0.983783    0.271605
 S        -28.948978   -1.424388    0.378892
 C        -29.387584    1.165317    0.310554
 C        -30.032441   -0.040689    0.368551
 H        -29.902873    2.118689    0.300232
 H        -31.099310   -0.214401    0.409074
 N         13.968053    1.846710   -0.146756
 N         -6.444380   -1.913476   -0.253725
 N        -26.866053    1.806012    0.196084
 C         13.967667    3.299388   -0.100560
 H         13.101571    3.678627   -0.647821
 H         13.932737    3.671251    0.929905
 H         14.870161    3.676452   -0.586931
 C         -6.445379   -3.366180   -0.208136
 H         -5.572464   -3.745474   -0.744389
 H         -6.423842   -3.738477    0.822535
 H         -7.341687   -3.742657   -0.706287
 C        -26.863311    3.258184    0.231816
 H        -26.807787    3.639174    1.258416
 H        -26.008168    3.634395   -0.334958
 H        -27.775321    3.632946   -0.238418
       149
S1: Total Energy = -8608.61634299
 C         18.548657   -0.230099    0.029998
 C         19.243693   -1.439068    0.085852
 S         19.680692    1.114452    0.025173
 C         20.633441   -1.299573    0.124852
 H         18.744041   -2.401877    0.099383
 C         21.074289    0.027747    0.100521
 H         21.333018   -2.128327    0.171837
 C         22.440971    0.431245    0.134960
 C         23.570594   -0.400647    0.199780
 N         22.919847    1.743798    0.113343
 C         23.964701   -1.786794    0.255865
 C         24.741898    0.398940    0.219424
 C         24.347003    1.788259    0.164695
 C         22.163230    2.981857    0.044616
 N         25.395557   -1.739490    0.309135
 O         23.335645   -2.848457    0.262437
 C         25.868438   -0.429424    0.287037
 O         24.979222    2.846496    0.157400
 H         22.898750    3.787978    0.039548
 H         21.509989    3.102250    0.914466
 H         21.568144    3.037706   -0.872148
 C         26.153515   -2.976929    0.377574
 C         27.247068   -0.021632    0.325579
 H         25.418884   -3.783779    0.377382
 H         26.811083   -3.093109   -0.489497
 H         26.745373   -3.033996    1.296311
 C         27.686142    1.297013    0.297039
 S         28.635261   -1.109408    0.415577
 H         26.991582    2.129028    0.242254
 C         29.094807    1.425458    0.346081
 C         29.742360    0.217834    0.412169
 H         29.611625    2.378650    0.332952
 H         30.806209    0.026003    0.459071
 C         17.140710   -0.009068   -0.017436
 C         16.456398    1.205107   -0.060120
 S         16.024418   -1.405503   -0.021504
 C         15.066620    1.021698   -0.095330
 H         16.960800    2.164510   -0.059277
 C         14.652553   -0.334918   -0.074630
 C         13.258139   -0.336262   -0.105252
 C         12.842924    1.021101   -0.143029
 S         11.888139   -1.409800   -0.114081
 C         11.454939    1.204200   -0.167450
 C         10.767808   -0.013344   -0.157328
 H         10.949664    2.162869   -0.188928
 C          9.366420   -0.234866   -0.172635
 S          8.228392    1.108870   -0.189040
 C          8.669035   -1.450062   -0.175912
 C          6.833888    0.014571   -0.199465
 C          7.284740   -1.318337   -0.191229
 H          9.172887   -2.410878   -0.168271
 C          5.476368    0.409232   -0.211075
 H          6.586646   -2.149540   -0.196555
 C          4.337384   -0.432851   -0.219525
 N          4.983101    1.717427   -0.213756
 C          3.172184    0.352870   -0.225790
 C          3.950872   -1.828539   -0.223876
 C          3.559793    1.749061   -0.222221
 C          5.731447    2.962635   -0.206655
 C          2.033697   -0.488747   -0.233099
 N          2.527590   -1.797180   -0.233043
 O          4.595825   -2.880806   -0.221095
 O          2.915147    2.801087   -0.225225
 H          4.990737    3.763847   -0.210908
 H          6.348998    3.053385    0.692255
 H          6.361914    3.055824   -1.096305
 C          0.676039   -0.093420   -0.236024
 C          1.779914   -3.042632   -0.240902
 S         -0.717062   -1.187879   -0.241884
 C          0.225496    1.240542   -0.230611
 H          2.521438   -3.843156   -0.241707
 H          1.159221   -3.131460   -1.137889
 H          1.152796   -3.139354    0.650806
 C         -1.856290    0.156651   -0.234969
 C         -1.157892    1.372384   -0.229541
 H          0.923980    2.071279   -0.226885
 C         -3.255523   -0.063717   -0.233443
 H         -1.661508    2.333398   -0.225214
 C         -3.943184   -1.283623   -0.245593
 S         -4.375616    1.334051   -0.207243
 C         -5.329042   -1.100593   -0.235681
 H         -3.436974   -2.241781   -0.257286
 C         -5.746137    0.259527   -0.207601
 C         -7.136683    0.258497   -0.189908
 C         -7.553073   -1.102401   -0.208158
 S         -8.507212    1.331081   -0.153715
 C         -8.937916   -1.285303   -0.184024
 C         -9.625794   -0.066561   -0.153146
 H         -9.443461   -2.244029   -0.183748
 C        -11.026574    0.152127   -0.119712
 S        -12.162658   -1.192352   -0.113490
 C        -11.724100    1.366779   -0.086639
 C        -13.555281   -0.100723   -0.065776
 C        -13.108664    1.231115   -0.057218
 H        -11.221956    2.328345   -0.083799
 C        -14.916192   -0.497956   -0.037602
 H        -13.807340    2.061297   -0.029024
 C        -16.050166    0.341580    0.002267
 N        -15.404571   -1.807027   -0.041640
 C        -17.217697   -0.447951    0.023300
 C        -16.439375    1.734523    0.028321
 C        -16.829654   -1.841950   -0.003893
 C        -14.654175   -3.050709   -0.079594
 C        -18.351315    0.390112    0.062092
 N        -17.866860    1.697748    0.064861
 O        -15.801177    2.789414    0.023844
 O        -17.471101   -2.894742    0.001045
 H        -15.393582   -3.853151   -0.075235
 H        -14.051934   -3.126984   -0.990100
 H        -14.009352   -3.156545    0.798244
 C        -19.716078   -0.010144    0.092252
 C        -18.618543    2.940698    0.102811
 S        -21.108366    1.081655    0.135028
 C        -20.161563   -1.336652    0.092107
 H        -17.880022    3.743924    0.098964
 H        -19.221439    3.015661    1.012971
 H        -19.263104    3.045686   -0.775315
 C        -22.242213   -0.258141    0.149752
 C        -21.552792   -1.469462    0.124313
 H        -19.465212   -2.168929    0.067193
 C        -23.654549   -0.031593    0.182941
 H        -22.056486   -2.430165    0.126600
 C        -24.335710    1.179317    0.180472
 S        -24.771657   -1.424132    0.237896
 C        -25.731825    0.996004    0.219573
 H        -23.831817    2.138917    0.151925
 C        -26.140654   -0.354125    0.260139
 C        -27.546903   -0.353959    0.300611
 C        -27.954260    0.993832    0.282946
 S        -28.926157   -1.417837    0.358334
 C        -29.365321    1.173685    0.323106
 C        -30.008984   -0.034351    0.364942
 H        -29.881823    2.126361    0.324848
 H        -31.075897   -0.208723    0.402364
 N         13.955243    1.843223   -0.152002
 N         -6.440282   -1.923090   -0.251247
 N        -26.845569    1.817630    0.219336
 C         13.953282    3.295967   -0.109233
 H         13.086030    3.672879   -0.656286
 H         13.919301    3.670111    0.920444
 H         14.854827    3.672694   -0.597634
 C         -6.438004   -3.376198   -0.207258
 H         -5.561910   -3.752236   -0.740412
 H         -6.419805   -3.748754    0.823231
 H         -7.331373   -3.753779   -0.709740
 C        -26.843832    3.269765    0.269245
 H        -26.788777    3.640019    1.299638
 H        -25.988858    3.651739   -0.293780
 H        -27.755979    3.648172   -0.197603
