       222
S0: Total Energy = -6741.35225848
 C         -5.374454   -0.894884    0.490729
 C         -6.017753   -1.962312    1.105173
 C         -7.416469   -1.946385    0.926357
 C         -7.851755   -0.879332    0.169797
 C         -9.293148   -0.895410    0.022594
 C         -9.762916   -2.049340    0.701669
 C        -11.120709   -2.334931    0.748738
 S         -6.553647    0.158302   -0.312275
 C         -8.592680   -2.832774    1.345052
 H        -11.493529   -3.210255    1.272983
 C        -15.903278   -1.426696   -0.326155
 C        -15.295692   -0.370841   -0.955929
 C        -13.882197   -0.402946   -0.796991
 C        -13.445041   -1.471546   -0.048371
 C        -12.002032   -1.457455    0.103339
 C        -11.533040   -0.303374   -0.575324
 C        -10.175596   -0.018936   -0.624862
 S        -14.757408   -2.474945    0.481194
 C        -12.704501    0.482355   -1.213653
 H         -9.802821    0.855758   -1.150107
 C         -8.380440   -4.237454    0.740700
 C         -7.515010   -5.145031    1.372796
 C         -7.235867   -6.387393    0.808456
 C         -7.808689   -6.777910   -0.410418
 C         -8.663517   -5.869128   -1.042367
 C         -8.945379   -4.621694   -0.480400
 H         -7.058860   -4.880237    2.322510
 H         -6.560827   -7.066549    1.325265
 H         -9.120249   -6.136089   -1.992975
 H         -9.610015   -3.944746   -1.006589
 C         -8.813581   -2.879724    2.871605
 C         -9.602053   -3.886677    3.449335
 C         -9.875162   -3.892014    4.816078
 C         -9.370677   -2.896020    5.663122
 C         -8.589147   -1.889976    5.083852
 C         -8.315128   -1.879500    3.715171
 H        -10.000929   -4.682516    2.827358
 H        -10.490953   -4.687122    5.231370
 H         -8.185125   -1.098192    5.711120
 H         -7.707551   -1.079809    3.303539
 C        -12.487245    0.536268   -2.740420
 C        -11.698662    1.544603   -3.315697
 C        -11.429143    1.555646   -4.682981
 C        -11.937814    0.564354   -5.533244
 C        -12.719969   -0.442543   -4.956587
 C        -12.990206   -0.458788   -3.587103
 H        -11.296617    2.336816   -2.691137
 H        -10.812512    2.351157   -5.096193
 H        -13.127112   -1.230586   -5.586558
 H        -13.597701   -1.259285   -3.176744
 C        -12.915414    1.884515   -0.602681
 C        -13.784425    2.793447   -1.227992
 C        -14.062410    4.033553   -0.658313
 C        -13.484842    4.420480    0.559500
 C        -12.626180    3.510564    1.184583
 C        -12.345396    2.265273    0.617200
 H        -14.244863    2.531156   -2.176292
 H        -14.740848    4.713406   -1.169670
 H        -12.165760    3.774720    2.134226
 H        -11.677638    1.587354    1.138118
 C         -7.529475   -8.139305   -1.003123
 H         -8.163215   -8.911060   -0.545900
 H         -7.724031   -8.153924   -2.080456
 C         -9.639571   -2.924554    7.149584
 H         -9.557881   -1.925434    7.590099
 H        -10.640741   -3.311848    7.368297
 C        -11.671215    0.598953   -7.019984
 H        -10.658955    0.957366   -7.237198
 H        -11.784145   -0.392942   -7.469684
 C        -13.764071    5.779167    1.158441
 H        -13.555514    5.792918    2.233149
 H        -13.141236    6.555692    0.694321
 H         -6.488582   -8.441048   -0.841613
 H         -8.921906   -3.571083    7.672421
 H        -12.369352    1.272559   -7.534974
 H        -14.808784    6.075018    1.011234
 H        -15.844530    0.387840   -1.502435
 H         -5.486563   -2.714999    1.675588
 H        -16.958646   -1.660259   -0.280071
 C         -3.929938   -0.693297    0.415707
 C         -3.308431    0.576217    0.143096
 C         -3.069797   -1.768418    0.629511
 C         -1.873677    0.696774    0.082590
 C         -1.674427   -1.640456    0.618727
 H         -3.485613   -2.753480    0.811399
 C         -3.512762    2.834351   -0.317375
 C         -1.026838   -0.439060    0.338120
 H         -1.084651   -2.522994    0.841536
 C         -2.088895    2.939490   -0.443627
 C         -3.754613    5.267236   -0.809519
 C         -2.298268    5.359276   -1.009068
 N         -4.080791    1.664151   -0.045551
 N         -1.313423    1.882566   -0.226061
 C         -4.350637    4.023048   -0.475771
 C         -5.742980    3.937044   -0.283747
 C         -6.550123    5.054433   -0.421378
 H         -6.167638    2.975994   -0.019369
 C         -4.601062    6.388007   -0.939962
 C         -5.971851    6.287698   -0.752044
 H         -7.622690    4.974524   -0.269069
 H         -4.185326    7.357815   -1.187067
 H         -6.594068    7.171983   -0.858842
 C         -1.480327    4.214149   -0.824224
 C         -0.088738    4.302372   -1.020618
 C         -1.668010    6.563856   -1.385068
 C          0.503281    5.499835   -1.387441
 H          0.508308    3.408668   -0.885014
 C         -0.295028    6.637425   -1.569745
 H         -2.256945    7.459811   -1.542740
 H          1.577962    5.552665   -1.537041
 H          0.156839    7.581537   -1.861365
 C          0.432234   -0.390796    0.304128
 C          1.283021   -1.483087    0.182341
 S          1.367113    1.098765    0.532036
 C          2.646306   -1.141922    0.297871
 H          0.921988   -2.487430   -0.004836
 C          2.849284    0.206634    0.502438
 C          3.982217   -1.882722    0.187576
 C          4.261503    0.519803    0.567569
 C          4.962939   -0.700316    0.382323
 C          4.214246   -2.905215    1.319760
 C          4.063187   -2.529147   -1.211953
 C          4.940433    1.728932    0.777100
 C          6.349901   -0.726481    0.413515
 C          5.203159   -3.893742    1.198900
 C          3.516779   -2.827942    2.531175
 C          3.416133   -3.751651   -1.454922
 C          4.681121   -1.894793   -2.295393
 C          6.327237    1.703196    0.804578
 H          4.392240    2.657313    0.909406
 C          7.028843    0.483310    0.618704
 H          6.898250   -1.654874    0.282075
 C          5.477729   -4.769518    2.247609
 H          5.760902   -3.987787    0.271838
 C          3.793405   -3.708595    3.578435
 H          2.750647   -2.070728    2.664731
 C          3.397260   -4.316818   -2.727735
 H          2.926113   -4.272416   -0.637168
 C          4.660461   -2.465582   -3.570142
 H          5.182014   -0.943208   -2.152219
 C          7.306903    2.887480    0.990731
 C          8.441486    0.797992    0.686610
 C          4.775571   -4.698089    3.458506
 H          6.252197   -5.523159    2.120959
 H          3.232423   -3.621122    4.506506
 C          4.023551   -3.686893   -3.812656
 H          2.885855   -5.264966   -2.880787
 H          5.150583   -1.945363   -4.390338
 C          8.642872    2.148396    0.876428
 C          7.232058    3.539982    2.388002
 C          7.067090    3.905217   -0.144123
 S          9.928623   -0.074135    0.538064
 C          5.053207   -5.670903    4.580668
 C          4.026920   -4.318214   -5.185273
 C         10.008478    2.499393    0.937906
 C          7.888691    4.758573    2.624556
 C          6.609548    2.915875    3.474725
 C          6.084698    4.899101   -0.017550
 C          7.750387    3.817370   -1.363305
 C         10.858854    1.413616    0.783729
 H          6.118920   -5.917182    4.642851
 H          4.741442   -5.264643    5.548443
 H          4.511935   -6.615183    4.433205
 H          4.222046   -3.576029   -5.966097
 H          4.802610   -5.091462   -5.267276
 H          3.068185   -4.800222   -5.406899
 H         10.373015    3.510777    1.074533
 C          7.911934    5.330225    3.894463
 H          8.382314    5.271418    1.803885
 C          6.634755    3.493019    4.746487
 H          6.100862    1.967741    3.336418
 C          5.803285    5.770986   -1.068279
 H          5.537866    5.001148    0.915119
 C          7.466746    4.693529   -2.411965
 H          8.511534    3.055973   -1.501364
 C         12.318497    1.442833    0.901496
 C          7.280648    4.710905    4.982570
 H          8.429713    6.275740    4.042527
 H          6.139985    2.981209    5.569150
 C          6.491392    5.689541   -2.286194
 H          5.036025    6.531224   -0.936127
 H          8.017078    4.598134   -3.345604
 C         13.183235    0.456482    0.300616
 C         12.925444    2.469141    1.619623
 C          7.279348    5.350248    6.351450
 C          6.210430    6.659077   -3.410376
 C         14.608054    0.567823    0.452544
 N         12.659871   -0.565358   -0.405541
 C         14.328162    2.581530    1.745780
 H         12.302849    3.201310    2.122493
 H          6.488327    6.107356    6.437230
 H          7.107523    4.609095    7.138793
 H          8.230107    5.853389    6.559806
 H          6.437467    6.217070   -4.386210
 H          5.161239    6.973774   -3.415585
 H          6.820367    7.567571   -3.315141
 C         15.166345    1.650653    1.178377
 N         15.434772   -0.356002   -0.087989
 C         13.478667   -1.464006   -0.944987
 H         14.737815    3.409368    2.317404
 H         16.245910    1.704675    1.274077
 C         14.900818   -1.360592   -0.771093
 C         12.919315   -2.565277   -1.729668
 C         15.784481   -2.374876   -1.348869
 C         13.780246   -3.545200   -2.290265
 C         11.528485   -2.650045   -1.933648
 C         15.236650   -3.453583   -2.088821
 C         17.176660   -2.279327   -1.163231
 C         13.192536   -4.586905   -3.037903
 C         10.979255   -3.685149   -2.672423
 H         10.897983   -1.882366   -1.500973
 C         16.130362   -4.410050   -2.614963
 C         18.031171   -3.231817   -1.693394
 H         17.559690   -1.440632   -0.593033
 C         11.820109   -4.660065   -3.226636
 H         13.814818   -5.353559   -3.484542
 H          9.904661   -3.737755   -2.822431
 C         17.500291   -4.304795   -2.423095
 H         15.753684   -5.252617   -3.183043
 H         19.103715   -3.147887   -1.543071
 H         11.401357   -5.475839   -3.809442
 H         18.159895   -5.059659   -2.842163
       222
T1: Total Energy = -6741.31177763
 C         -5.303347   -1.076189    0.158962
 C         -5.942016   -2.337132    0.271286
 C         -7.328371   -2.262553    0.213631
 C         -7.803056   -0.962421    0.048331
 C         -9.236412   -0.940961   -0.013262
 C         -9.683637   -2.288536    0.099520
 C        -11.037429   -2.583741    0.091718
 S         -6.527185    0.211408   -0.025151
 C         -8.489340   -3.261322    0.249661
 H        -11.391734   -3.606091    0.186337
 C        -15.856780   -1.364955   -0.184851
 C        -15.276657   -0.127566   -0.307996
 C        -13.858116   -0.203098   -0.261217
 C        -13.388829   -1.488632   -0.097446
 C        -11.944035   -1.521022   -0.039143
 C        -11.500127   -0.174192   -0.153807
 C        -10.148601    0.122787   -0.147338
 S        -14.678784   -2.645289   -0.000162
 C        -12.698264    0.794769   -0.304142
 H         -9.794564    1.144913   -0.243716
 C         -8.330262   -4.232251   -0.940012
 C         -7.451877   -5.323129   -0.838458
 C         -7.222743   -6.166370   -1.922870
 C         -7.860277   -5.957627   -3.154303
 C         -8.727709   -4.865302   -3.255410
 C         -8.959495   -4.016118   -2.170810
 H         -6.945761   -5.520697    0.102183
 H         -6.535783   -7.002564   -1.810090
 H         -9.233454   -4.668777   -4.198252
 H         -9.635369   -3.176553   -2.294527
 C         -8.624050   -3.999812    1.597797
 C         -9.394515   -5.168584    1.696528
 C         -9.593030   -5.797958    2.924073
 C         -9.028934   -5.290102    4.102182
 C         -8.265966   -4.121206    4.001887
 C         -8.066752   -3.485998    2.775000
 H         -9.837877   -5.599302    0.803676
 H        -10.196467   -6.702333    2.965466
 H         -7.817583   -3.696045    4.897252
 H         -7.471268   -2.579226    2.740524
 C        -12.570237    1.529548   -1.655088
 C        -11.799700    2.697708   -1.761874
 C        -11.609103    3.323720   -2.992032
 C        -12.182650    2.813763   -4.165038
 C        -12.947043    1.646912   -4.056381
 C        -13.137673    1.014403   -2.826391
 H        -11.349476    3.129791   -0.873073
 H        -11.003799    4.226463   -3.040250
 H        -13.403007    1.221009   -4.947580
 H        -13.733317    0.107898   -2.784425
 C        -12.857347    1.771780    0.880955
 C        -13.751871    2.849542    0.778786
 C        -13.981198    3.700184    1.857397
 C        -13.327367    3.512567    3.083638
 C        -12.443639    2.433370    3.185645
 C        -12.211654    1.576821    2.106881
 H        -14.270643    3.030926   -0.158256
 H        -14.680753    4.525776    1.743829
 H        -11.923657    2.254140    4.124202
 H        -11.521421    0.749174    2.230931
 C         -7.633238   -6.893214   -4.318560
 H         -8.251832   -7.796461   -4.230665
 H         -7.886542   -6.415530   -5.270516
 C         -9.217024   -5.994596    5.425344
 H         -9.102682   -5.303103    6.266563
 H        -10.208128   -6.455841    5.496284
 C        -11.999998    3.514439   -5.490982
 H        -10.987631    3.920727   -5.592977
 H        -12.179367    2.834832   -6.330395
 C        -13.553533    4.457053    4.240893
 H        -13.287601    3.991039    5.195218
 H        -12.944011    5.364989    4.139306
 H         -6.589401   -7.222182   -4.370535
 H         -8.477564   -6.795662    5.558884
 H        -12.697427    4.356275   -5.596520
 H        -14.599876    4.777041    4.298518
 H        -15.849204    0.785624   -0.424074
 H         -5.393679   -3.262865    0.384973
 H        -16.910264   -1.611372   -0.187966
 C         -3.902559   -0.838239    0.163176
 C         -3.308218    0.478292    0.048109
 C         -2.999613   -1.948642    0.275682
 C         -1.873793    0.630709   -0.013007
 C         -1.643936   -1.799694    0.268826
 H         -3.402056   -2.949429    0.372066
 C         -3.543442    2.780254   -0.149254
 C         -1.005406   -0.520643    0.133747
 H         -1.032775   -2.688156    0.368910
 C         -2.146149    2.918918   -0.299792
 C         -3.835600    5.247518   -0.361058
 C         -2.396790    5.381177   -0.601074
 N         -4.102464    1.555780    0.000825
 N         -1.332504    1.839973   -0.206163
 C         -4.399064    3.958612   -0.146403
 C         -5.785907    3.835825    0.086376
 C         -6.609125    4.947435    0.106116
 H         -6.191602    2.848120    0.260849
 C         -4.701860    6.362864   -0.334415
 C         -6.061122    6.222153   -0.107500
 H         -7.673896    4.833357    0.290715
 H         -4.305306    7.360165   -0.486768
 H         -6.698701    7.101969   -0.091616
 C         -1.564828    4.227394   -0.564248
 C         -0.179928    4.360576   -0.802908
 C         -1.790429    6.627732   -0.872305
 C          0.384973    5.595583   -1.066214
 H          0.432017    3.468441   -0.787390
 C         -0.428403    6.739328   -1.099051
 H         -2.395164    7.526430   -0.914435
 H          1.452646    5.677212   -1.251340
 H          0.005104    7.713920   -1.306639
 C          0.411499   -0.441315    0.163094
 C          1.311769   -1.529707    0.301921
 S          1.321633    1.092589    0.062576
 C          2.644481   -1.143689    0.340421
 H          0.980889   -2.557690    0.367060
 C          2.822735    0.235678    0.225323
 C          3.996598   -1.856810    0.437707
 C          4.212897    0.579553    0.255771
 C          4.946978   -0.636944    0.376201
 C          4.215268   -2.582238    1.781879
 C          4.130566   -2.805616   -0.772753
 C          4.868066    1.825408    0.196685
 C          6.329226   -0.620576    0.446616
 C          5.225632   -3.546929    1.914980
 C          3.485516   -2.241419    2.927185
 C          3.523735   -4.071475   -0.739025
 C          4.757622   -2.416232   -1.961403
 C          6.248947    1.839548    0.266967
 H          4.298365    2.744479    0.096318
 C          6.980133    0.622864    0.385803
 H          6.899369   -1.539356    0.547772
 C          5.489381   -4.147792    3.144544
 H          5.808752   -3.840646    1.047235
 C          3.751388   -2.847590    4.156057
 H          2.701200   -1.493675    2.866150
 C          3.553469   -4.913927   -1.847637
 H          3.027636   -4.406414    0.167413
 C          4.786060   -3.265011   -3.070427
 H          5.227079   -1.440766   -2.032905
 C          7.203525    3.056810    0.203164
 C          8.378426    0.975746    0.419128
 C          4.754852   -3.813871    4.290332
 H          6.280835   -4.891127    3.213221
 H          3.164877   -2.560224    5.026071
 C          4.189859   -4.529654   -3.036655
 H          3.072875   -5.888237   -1.787733
 H          5.281811   -2.930927   -3.979248
 C          8.552953    2.340868    0.299410
 C          7.074410    4.009963    1.411095
 C          6.985620    3.781184   -1.141806
 S          9.883880    0.126313    0.520862
 C          5.020289   -4.492037    5.613975
 C          4.246053   -5.458833   -4.226571
 C          9.907716    2.726430    0.319488
 C          7.705535    5.263888    1.378854
 C          6.427372    3.637989    2.594747
 C          5.987249    4.758503   -1.273009
 C          7.705837    3.427580   -2.289184
 C         10.780552    1.652562    0.446795
 H          6.081707   -4.734743    5.733800
 H          4.718923   -3.859228    6.455233
 H          4.461551   -5.433896    5.698244
 H          4.437696   -4.909573   -5.154005
 H          5.046762   -6.202223   -4.114721
 H          3.308201   -6.012403   -4.347112
 H         10.251009    3.750192    0.230215
 C          7.680513    6.111678    2.483712
 H          8.216555    5.585877    0.475903
 C          6.403745    4.491844    3.699803
 H          5.936954    2.672890    2.664832
 C          5.725602    5.358560   -2.503444
 H          5.412417    5.062375   -0.403222
 C          7.441927    4.032963   -3.518931
 H          8.480638    2.669767   -2.228612
 C         12.233689    1.742579    0.597359
 C          7.024301    5.744932    3.667245
 H          8.179276    7.076878    2.424550
 H          5.890393    4.171978    4.603960
 C          6.450043    5.011260   -3.651767
 H          4.943986    6.112451   -2.571065
 H          8.020744    3.735687   -4.390784
 C         13.131902    0.653346    0.298717
 C         12.801613    2.931771    1.047405
 C          6.969410    6.680897    4.851872
 C          6.186194    5.688228   -4.976351
 C         14.548327    0.829834    0.465093
 N         12.647802   -0.525653   -0.139302
 C         14.196555    3.101672    1.188027
 H         12.153232    3.755962    1.324180
 H          6.149205    7.404199    4.750228
 H          6.806944    6.134169    5.786491
 H          7.896190    7.256703    4.951061
 H          6.492985    5.056600   -5.816476
 H          5.124078    5.926162   -5.099923
 H          6.740821    6.632669   -5.058736
 C         15.066137    2.073822    0.906973
 N         15.405530   -0.184494    0.209773
 C         13.496922   -1.515441   -0.402357
 H         14.574816    4.056572    1.541369
 H         16.140582    2.173223    1.022014
 C         14.909915   -1.341694   -0.209857
 C         12.981756   -2.791369   -0.899895
 C         15.826639   -2.452322   -0.472885
 C         13.874989   -3.864782   -1.156848
 C         11.601922   -2.953141   -1.130575
 C         15.320552   -3.695822   -0.929644
 C         17.208757   -2.284453   -0.264828
 C         13.329563   -5.074458   -1.635014
 C         11.094540   -4.153351   -1.600486
 H         10.946142   -2.112951   -0.935889
 C         16.244419   -4.737653   -1.156132
 C         18.093650   -3.324187   -0.497996
 H         17.559545   -1.319943    0.084255
 C         11.967297   -5.220783   -1.852446
 H         13.977560   -5.917135   -1.845922
 H         10.028046   -4.263669   -1.774932
 C         17.603993   -4.559270   -0.945612
 H         15.899872   -5.705563   -1.500938
 H         19.158039   -3.183120   -0.333296
 H         11.581558   -6.166553   -2.222867
 H         18.287659   -5.383400   -1.129726
       222
S1: Total Energy = -6741.29350274
 C         -5.304801   -1.092741    0.266666
 C         -5.945981   -2.334924    0.425609
 C         -7.335782   -2.256862    0.333771
 C         -7.795037   -0.965122    0.095135
 C         -9.226648   -0.938087   -0.001192
 C         -9.686184   -2.277287    0.165197
 C        -11.040168   -2.565772    0.134635
 S         -6.509671    0.192552    0.002821
 C         -8.502110   -3.246720    0.394244
 H        -11.403305   -3.580527    0.269025
 C        -15.839121   -1.339595   -0.347936
 C        -15.248345   -0.111459   -0.513677
 C        -13.833554   -0.190303   -0.419104
 C        -13.376404   -1.469732   -0.177410
 C        -11.936471   -1.505755   -0.074485
 C        -11.480294   -0.167355   -0.242065
 C        -10.128093    0.122767   -0.211829
 S        -14.675981   -2.614810   -0.064077
 C        -12.667182    0.798763   -0.475680
 H         -9.765067    1.137054   -0.348668
 C         -8.320290   -4.279079   -0.738893
 C         -7.460390   -5.373975   -0.556228
 C         -7.209400   -6.272568   -1.590421
 C         -7.805350   -6.117269   -2.850055
 C         -8.653956   -5.020422   -3.032218
 C         -8.907496   -4.116098   -1.998584
 H         -6.986018   -5.530803    0.408273
 H         -6.537708   -7.110362   -1.415021
 H         -9.126913   -4.864221   -3.999304
 H         -9.566945   -3.275026   -2.185048
 C         -8.674577   -3.910439    1.776545
 C         -9.452645   -5.069524    1.919922
 C         -9.684996   -5.629227    3.174978
 C         -9.149172   -5.058126    4.337243
 C         -8.378419   -3.899047    4.191979
 C         -8.144964   -3.333696    2.937349
 H         -9.875280   -5.547621    1.041243
 H        -10.293363   -6.528041    3.250991
 H         -7.951114   -3.426185    5.073602
 H         -7.544470   -2.432224    2.867935
 C        -12.493532    1.464580   -1.856935
 C        -11.719263    2.626753   -1.997033
 C        -11.485733    3.188257   -3.250654
 C        -12.017250    2.616487   -4.414996
 C        -12.785471    1.455811   -4.272711
 C        -13.019509    0.888002   -3.018891
 H        -11.299610    3.104817   -1.116936
 H        -10.878658    4.088043   -3.324372
 H        -13.209576    0.983174   -5.156024
 H        -13.616368   -0.016179   -2.950994
 C        -12.856869    1.832421    0.655607
 C        -13.739553    2.909335    0.473643
 C        -13.996910    3.811416    1.503082
 C        -13.384220    3.678135    2.757271
 C        -12.512246    2.599680    2.938688
 C        -12.252277    1.691697    1.909687
 H        -14.226440    3.049528   -0.487252
 H        -14.686075    4.634955    1.328021
 H        -12.023874    2.462090    3.900936
 H        -11.572331    0.866986    2.095000
 C         -7.555922   -7.111998   -3.959366
 H         -8.203569   -7.993201   -3.857666
 H         -7.754904   -6.672846   -4.942317
 C         -9.374239   -5.687272    5.692198
 H         -9.279907   -4.950061    6.496250
 H        -10.368253   -6.142293    5.762541
 C        -11.786193    3.246829   -5.768375
 H        -10.763607    3.628796   -5.862637
 H        -11.956742    2.529680   -6.577796
 C        -13.639646    4.677814    3.860769
 H        -13.422607    4.250864    4.845291
 H        -13.008403    5.569034    3.744805
 H         -6.520740   -7.470744   -3.950549
 H         -8.640947   -6.480745    5.889746
 H        -12.463575    4.095294   -5.933921
 H        -14.680907    5.018707    3.859703
 H        -15.812103    0.797058   -0.692225
 H         -5.406244   -3.256924    0.598700
 H        -16.893578   -1.580814   -0.371772
 C         -3.883663   -0.860929    0.263841
 C         -3.293880    0.446950    0.143835
 C         -3.001489   -1.964664    0.370583
 C         -1.868790    0.596005    0.069977
 C         -1.631789   -1.816349    0.353456
 H         -3.403532   -2.965993    0.465762
 C         -3.533954    2.748999   -0.043455
 C         -1.009579   -0.551904    0.205310
 H         -1.022547   -2.705941    0.458233
 C         -2.132170    2.885184   -0.219013
 C         -3.819108    5.223605   -0.241701
 C         -2.389339    5.351022   -0.528199
 N         -4.100315    1.532586    0.108601
 N         -1.314435    1.812172   -0.133320
 C         -4.378792    3.935084   -0.010994
 C         -5.757786    3.819082    0.272098
 C         -6.575888    4.933411    0.322597
 H         -6.159102    2.832540    0.464252
 C         -4.679843    6.341833   -0.183087
 C         -6.031368    6.206903    0.090380
 H         -7.633596    4.823134    0.546899
 H         -4.283881    7.337985   -0.345839
 H         -6.664405    7.089349    0.130180
 C         -1.561357    4.192609   -0.508210
 C         -0.183657    4.321381   -0.793656
 C         -1.787476    6.592768   -0.828387
 C          0.377065    5.551939   -1.084299
 H          0.424260    3.426178   -0.794876
 C         -0.432762    6.699218   -1.099221
 H         -2.391381    7.492746   -0.859529
 H          1.438397    5.627646   -1.306122
 H         -0.003289    7.670818   -1.328520
 C          0.426330   -0.468854    0.207202
 C          1.324049   -1.552032    0.290367
 S          1.319173    1.071324    0.149139
 C          2.659846   -1.160909    0.325266
 H          0.998299   -2.583668    0.316054
 C          2.827093    0.222611    0.262367
 C          4.015003   -1.870993    0.371202
 C          4.212358    0.573078    0.282841
 C          4.958275   -0.645011    0.340905
 C          4.260874   -2.645261    1.682949
 C          4.130653   -2.770836   -0.877827
 C          4.858909    1.826521    0.262337
 C          6.338803   -0.622349    0.384630
 C          5.279126   -3.607648    1.762747
 C          3.547371   -2.352981    2.851559
 C          3.538582   -4.043995   -0.879460
 C          4.723323   -2.326911   -2.065197
 C          6.238682    1.847464    0.306448
 H          4.280858    2.744236    0.210906
 C          6.982004    0.629432    0.360590
 H          6.917247   -1.539900    0.436782
 C          5.566122   -4.252939    2.964106
 H          5.849490   -3.864689    0.875100
 C          3.836292   -3.004092    4.051978
 H          2.757748   -1.608570    2.831679
 C          3.550689   -4.841714   -2.021097
 H          3.068159   -4.420154    0.024399
 C          4.734493   -3.131094   -3.207004
 H          5.178900   -1.343244   -2.110159
 C          7.184070    3.072610    0.274612
 C          8.372180    0.986898    0.378459
 C          4.847641   -3.967941    4.133284
 H          6.362921   -4.993192    2.991889
 H          3.261825   -2.754272    4.941342
 C          4.153767   -4.403542   -3.208710
 H          3.082210   -5.823139   -1.988386
 H          5.203700   -2.755499   -4.113670
 C          8.538429    2.361635    0.311952
 C          7.076538    3.970715    1.526206
 C          6.933158    3.852295   -1.033043
 S          9.884474    0.141742    0.414365
 C          5.138538   -4.694504    5.425451
 C          4.191796   -5.284553   -4.435314
 C          9.886855    2.752017    0.320063
 C          7.693216    5.232094    1.532930
 C          6.464797    3.538821    2.708309
 C          5.924405    4.825665   -1.100395
 C          7.631589    3.554531   -2.209097
 C         10.771106    1.676307    0.385692
 H          6.205946   -4.918524    5.527443
 H          4.830181   -4.104116    6.294452
 H          4.601336   -5.651258    5.473899
 H          4.345469   -4.696078   -5.345584
 H          5.009438   -6.015462   -4.375989
 H          3.261341   -5.851525   -4.550105
 H         10.221314    3.780768    0.265421
 C          7.687417    6.030119    2.674466
 H          8.176650    5.599797    0.632317
 C          6.460192    4.343165    3.849998
 H          5.986705    2.565828    2.748660
 C          5.632197    5.475821   -2.297779
 H          5.365906    5.086890   -0.206499
 C          7.337220    4.210656   -3.405657
 H          8.413215    2.801344   -2.198427
 C         12.223595    1.769213    0.499281
 C          7.065823    5.604005    3.856790
 H          8.173640    7.002992    2.645290
 H          5.973678    3.978024    4.751781
 C          6.335199    5.184888   -3.475074
 H          4.843706    6.225321   -2.316098
 H          7.899747    3.956508   -4.301412
 C         13.115401    0.672262    0.203972
 C         12.803236    2.969022    0.913590
 C          7.030646    6.486679    5.082240
 C          6.036686    5.915860   -4.762990
 C         14.535181    0.851105    0.340369
 N         12.622910   -0.513395   -0.203212
 C         14.198361    3.138293    1.025222
 H         12.163376    3.801124    1.185434
 H          6.198099    7.201291    5.033863
 H          6.900988    5.897610    5.995987
 H          7.951804    7.071306    5.181712
 H          6.368502    5.342231   -5.634444
 H          4.964450    6.111714   -4.872977
 H          6.547514    6.887507   -4.797072
 C         15.061665    2.102108    0.747716
 N         15.387036   -0.169361    0.090457
 C         13.467353   -1.510105   -0.464518
 H         14.585218    4.099033    1.352281
 H         16.138168    2.202373    0.840491
 C         14.882897   -1.334194   -0.297892
 C         12.944457   -2.792952   -0.932912
 C         15.794486   -2.450946   -0.551345
 C         13.832892   -3.873008   -1.181662
 C         11.561744   -2.957270   -1.146116
 C         15.280961   -3.702900   -0.975481
 C         17.179598   -2.280934   -0.365170
 C         13.280097   -5.089927   -1.632103
 C         11.047303   -4.164517   -1.588970
 H         10.908938   -2.112915   -0.961163
 C         16.200288   -4.751107   -1.191271
 C         18.059848   -3.326801   -0.587815
 H         17.536213   -1.309888   -0.041051
 C         11.915351   -5.238108   -1.831456
 H         13.924666   -5.936895   -1.836189
 H          9.978826   -4.275688   -1.750333
 C         17.562654   -4.570554   -1.002250
 H         15.849789   -5.725769   -1.510083