       270
S0: Total Energy = -9409.04464803
 C        -11.768149   -0.458354    0.165911
 C        -11.677329   -1.735186   -0.365339
 C        -12.927357   -2.391519   -0.427213
 C        -13.971119   -1.626439    0.046206
 C        -15.230556   -2.334777   -0.042210
 C        -14.946953   -3.598561   -0.621737
 C        -15.961874   -4.523864   -0.822972
 S        -13.447639   -0.063246    0.581419
 C        -13.436649   -3.746120   -0.927844
 H        -15.756531   -5.497865   -1.257675
 C        -20.707065   -6.040418   -0.641986
 C        -20.822582   -4.779489   -0.115340
 C        -19.566866   -4.112915   -0.059643
 C        -18.526090   -4.877183   -0.535321
 C        -17.263736   -4.167400   -0.446693
 C        -17.547115   -2.904351    0.133565
 C        -16.533149   -1.978311    0.334460
 S        -19.057691   -6.439221   -1.070960
 C        -19.057487   -2.758574    0.441138
 H        -16.738590   -1.004450    0.769425
 C        -13.119075   -3.852791   -2.435288
 C        -11.829015   -4.220288   -2.851600
 C        -11.486903   -4.243591   -4.201207
 C        -12.417136   -3.901750   -5.193494
 C        -13.698434   -3.528465   -4.776069
 C        -14.045747   -3.502527   -3.423097
 H        -11.084069   -4.499010   -2.111739
 H        -10.478132   -4.532663   -4.488801
 H        -14.443492   -3.250805   -5.518514
 H        -15.049558   -3.201764   -3.142543
 C        -12.885474   -4.944128   -0.126859
 C        -12.963784   -6.245909   -0.645013
 C        -12.543131   -7.344453    0.102387
 C        -12.024166   -7.189823    1.394995
 C        -11.952059   -5.891186    1.911469
 C        -12.374618   -4.788357    1.167350
 H        -13.348531   -6.404635   -1.648049
 H        -12.618361   -8.340417   -0.329105
 H        -11.558555   -5.734758    2.913594
 H        -12.305617   -3.797465    1.604996
 C        -19.610041   -1.560313   -0.358609
 C        -19.533150   -0.258321    0.159340
 C        -19.955382    0.839719   -0.587937
 C        -20.474596    0.684486   -1.880392
 C        -20.545535   -0.614297   -2.396643
 C        -20.121511   -1.716579   -1.652497
 H        -19.147929   -0.099007    1.162127
 H        -19.880840    1.835855   -0.156683
 H        -20.938797   -0.771011   -3.398861
 H        -20.188723   -2.707932   -2.089462
 C        -19.373654   -2.651934    1.948821
 C        -20.663665   -2.285880    2.366421
 C        -21.004685   -2.262221    3.716462
 C        -20.073298   -2.602334    4.708105
 C        -18.792004   -2.974886    4.289561
 C        -18.445906   -3.000858    2.936372
 H        -21.409577   -2.008712    1.626947
 H        -22.013413   -1.973660    4.004891
 H        -18.045866   -3.251317    5.031425
 H        -17.441987   -3.300554    2.655071
 C        -12.049742   -3.956879   -6.657904
 H        -12.058869   -4.988993   -7.033040
 H        -12.752488   -3.380535   -7.268149
 C        -11.536238   -8.379412    2.188360
 H        -11.562025   -8.180199    3.264738
 H        -12.145186   -9.268730    1.992295
 C        -20.963375    1.873686   -2.673856
 H        -20.350489    2.761542   -2.483430
 H        -20.944039    1.671878   -3.749876
 C        -20.438093   -2.544702    6.173108
 H        -19.751760   -3.144165    6.779868
 H        -20.398303   -1.515373    6.553993
 H        -11.043283   -3.560473   -6.833671
 H        -10.499838   -8.633891    1.928593
 H        -21.997478    2.132254   -2.408938
 H        -21.455499   -2.912471    6.347704
 H        -21.766310   -4.359978    0.214634
 H        -10.736071   -2.169302   -0.684289
 H        -21.488444   -6.770391   -0.806517
 C        -10.719447    0.505703    0.393644
 C        -10.774369    1.712706    1.065216
 S         -9.099925    0.240911   -0.226585
 C         -9.546592    2.414139    1.092789
 H        -11.677193    2.081999    1.540730
 C         -8.508912    1.761717    0.452891
 H         -9.411896    3.371595    1.574043
 C         -7.100473    2.117749    0.298813
 C         -6.611203    3.468510    0.414885
 C         -6.145723    1.142488    0.017033
 C         -5.224389    3.769884    0.213970
 N         -7.464288    4.465656    0.748858
 C         -4.787054    1.434072   -0.157441
 H         -6.451201    0.103447   -0.059875
 C         -4.271837    2.725405   -0.065790
 N         -4.812230    5.058828    0.259411
 C         -7.036106    5.712634    0.850136
 H         -4.120223    0.609051   -0.388913
 C         -5.668528    6.030631    0.525570
 C         -8.031275    6.700873    1.354324
 C         -5.131363    7.416330    0.415000
 C         -7.691314    7.646485    2.338874
 C         -9.348840    6.633831    0.893619
 C         -5.854143    8.433696   -0.234413
 C         -3.848575    7.688209    0.898314
 C         -8.668116    8.501994    2.836592
 H         -6.677304    7.698267    2.719888
 C        -10.324733    7.509544    1.388284
 H         -9.631722    5.900841    0.145915
 C         -5.285506    9.694092   -0.382108
 H         -6.842761    8.233102   -0.632331
 C         -3.287393    8.964677    0.758933
 H         -3.270604    6.911465    1.387108
 C         -9.984898    8.450889    2.367644
 H         -8.409025    9.224223    3.605958
 O        -11.571712    7.362819    0.852977
 C         -4.008765    9.976979    0.114220
 H         -5.838584   10.476787   -0.894111
 O         -2.036107    9.116750    1.282820
 H        -10.724092    9.134977    2.767810
 C        -12.608934    8.217783    1.318125
 H         -3.593502   10.970544   -0.007888
 C         -1.405400   10.386044    1.163278
 H        -12.381411    9.272374    1.117063
 H        -13.503752    7.929464    0.764281
 H        -12.788127    8.084758    2.392569
 H         -1.977059   11.169368    1.676984
 H         -0.429586   10.280070    1.639888
 H         -1.267336   10.668998    0.112025
 C         -2.842471    2.974056   -0.236632
 C         -2.156831    4.118873   -0.598378
 S         -1.695632    1.651765    0.004843
 C         -0.757335    3.944528   -0.704124
 H         -2.662062    5.054575   -0.787555
 C         -0.325336    2.663418   -0.415817
 H         -0.082554    4.741837   -0.998291
 C          1.016423    2.133976   -0.411536
 C          1.432735    0.818202   -0.282459
 S          2.406165    3.225298   -0.575715
 C          2.839070    0.685064   -0.309415
 H          0.736241   -0.007384   -0.185685
 C          3.499460    1.884544   -0.468126
 C          3.836410   -0.475314   -0.252111
 C          4.933511    1.698722   -0.509585
 C          5.167417    0.303838   -0.385815
 C          3.834696   -1.218064    1.100562
 C          3.549713   -1.419162   -1.439899
 C          5.992068    2.610836   -0.630073
 C          6.462255   -0.193443   -0.369396
 C          4.413927   -2.490778    1.217232
 C          3.341495   -0.617852    2.265455
 C          2.506095   -2.354621   -1.350452
 C          4.232096   -1.320795   -2.657366
 C          7.286885    2.113511   -0.613699
 H          5.799282    3.674759   -0.733497
 C          7.520868    0.718821   -0.488235
 H          6.655015   -1.257365   -0.265984
 C          4.491452   -3.135652    2.450439
 H          4.801139   -2.990050    0.334007
 C          3.419247   -1.268232    3.497965
 H          2.892949    0.369317    2.216143
 C          2.168435   -3.162842   -2.433166
 H          1.955041   -2.458495   -0.420068
 C          3.890847   -2.134476   -3.740334
 H          5.037180   -0.602678   -2.771261
 C          8.617856    2.892758   -0.746642
 C          8.955357    0.533790   -0.521653
 C          3.991894   -2.539742    3.616254
 H          4.947814   -4.121759    2.506072
 H          3.025190   -0.774004    4.383405
 C          2.857596   -3.072682   -3.651075
 H          1.353970   -3.876837   -2.329642
 H          4.442562   -2.032839   -4.672384
 C          9.615665    1.733328   -0.680263
 C          8.900744    3.842199    0.437587
 C          8.622790    3.629255   -2.102737
 S         10.049457   -0.804894   -0.397723
 C          4.045824   -3.256446    4.945163
 C          2.508801   -3.973251   -4.812906
 C         11.022057    1.600003   -0.710656
 C          9.944310    4.777651    0.346681
 C          8.215231    3.749025    1.653631
 C          8.043167    4.901072   -2.226839
 C          9.119310    3.023941   -3.263591
 C         11.438101    0.284436   -0.580117
 H          4.945116   -3.876209    5.029802
 H          4.040021   -2.549619    5.781439
 H          3.181332   -3.921472    5.074712
 H          2.866586   -3.559202   -5.761143
 H          2.962274   -4.966868   -4.697536
 H          1.426172   -4.121569   -4.893926
 H         11.717961    2.422291   -0.835677
 C         10.278766    5.590896    1.426525
 H         10.497946    4.877357   -0.582627
 C          8.553305    4.567801    2.733818
 H          7.410204    3.031057    1.768783
 C          7.968527    5.540200   -3.463226
 H          7.653399    5.404218   -1.346950
 C          9.044428    3.668541   -4.499305
 H          9.568223    2.037240   -3.208407
 C         12.780128   -0.245318   -0.573085
 C          9.586405    5.505925    2.643067
 H         11.093304    6.304661    1.321960
 H          7.999178    4.470135    3.664845
 C          8.471423    4.939204   -4.624977
 H          7.511827    6.525805   -3.524605
 H          9.440984    3.170432   -5.381468
 C         13.200628   -1.558297   -0.670425
 S         14.167205    0.815758   -0.408834
 C          9.932538    6.411464    3.801820
 C          8.420706    5.649732   -5.957326
 C         14.605364   -1.718688   -0.624442
 H         12.513492   -2.389708   -0.789373
 C         15.305192   -0.532828   -0.501082
 H          9.492805    7.409609    3.673276
 H          9.558823    6.009218    4.748952
 H         11.015931    6.547261    3.894422
 H          8.424750    4.938931   -6.790259
 H          7.523550    6.272055   -6.045512
 H          9.287482    6.311264   -6.089486
 H         15.103822   -2.674704   -0.688437
 C         16.741689   -0.264399   -0.464896
 C         17.720410   -1.258565   -0.103508
 C         17.238030    0.998997   -0.776659
 C         19.115047   -0.932300   -0.046003
 N         17.324764   -2.527402    0.156199
 C         18.603701    1.312218   -0.736204
 H         16.550469    1.783198   -1.078606
 C         19.581702    0.386714   -0.384927
 N         20.000391   -1.872330    0.363796
 C         18.207232   -3.450836    0.497572
 H         18.895521    2.329328   -0.979545
 C         20.998909    0.760623   -0.378232
 C         19.592234   -3.091326    0.671915
 C         17.676361   -4.837148    0.630103
 C         22.069093    0.235137    0.316905
 S         21.545814    2.122106   -1.361059
 C         20.631031   -3.999846    1.235069
 C         18.352756   -5.937743    0.073112
 C         16.442250   -5.035238    1.254982
 C         23.297833    0.915092    0.081104
 H         21.965305   -0.614807    0.975616
 C         23.175752    1.954406   -0.800105
 C         20.371911   -4.802482    2.361010
 C         21.912432   -3.993765    0.677667
 C         17.786964   -7.205405    0.154829
 H         19.302407   -5.797248   -0.431347
 C         15.885342   -6.317901    1.347749
 H         15.899792   -4.195939    1.676505
 H         24.235257    0.637912    0.551418
 H         23.942555    2.627097   -1.160657
 C         21.390942   -5.580179    2.900052
 H         19.387883   -4.803589    2.816702
 C         22.930567   -4.791660    1.216555
 H         22.134027   -3.368099   -0.180041
 C         16.560004   -7.412727    0.793685
 H         18.302994   -8.053941   -0.286040
 O         14.685562   -6.392001    1.994377
 C         22.671006   -5.591344    2.336324
 H         21.194612   -6.191018    3.776975
 O         24.135599   -4.716297    0.579452
 H         16.146393   -8.412910    0.849602
 C         14.064571   -7.665667    2.118140
 H         23.444059   -6.213285    2.772405
 C         25.212910   -5.497086    1.082215
 H         14.690791   -8.364788    2.686780
 H         13.133597   -7.492003    2.660061
 H         13.837596   -8.099453    1.136074
 H         24.984874   -6.569807    1.042874
 H         26.063599   -5.284867    0.432665
 H         25.464819   -5.218264    2.113262
       270
T1: Total Energy = -9409.00027933
 C         11.698272   -0.433408   -0.061459
 C         11.526336   -1.815188    0.073271
 C         12.741591   -2.515459    0.092733
 C         13.854939   -1.697087   -0.016563
 C         15.076600   -2.460015    0.023551
 C         14.705231   -3.822551    0.184351
 C         15.673997   -4.813268    0.241943
 S         13.430360   -0.021897   -0.152827
 C         13.166749   -3.978667    0.247130
 H         15.402857   -5.858766    0.356461
 C         20.382200   -6.442062    0.240915
 C         20.581539   -5.091267    0.109466
 C         19.352550   -4.376222    0.084807
 C         18.248433   -5.192438    0.190343
 C         17.018713   -4.427748    0.147106
 C         17.390682   -3.066292   -0.013873
 C         16.424016   -2.074853   -0.071634
 S         18.686530   -6.865578    0.327682
 C         18.930143   -2.913212   -0.073168
 H         16.695637   -1.029363   -0.185134
 C         12.651692   -4.488680    1.610464
 C         11.315411   -4.900323    1.740947
 C         10.797943   -5.284997    2.975206
 C         11.591333   -5.275861    4.131509
 C         12.919279   -4.857558    4.000260
 C         13.442424   -4.469589    2.764419
 H         10.672657   -4.927665    0.865679
 H          9.757981   -5.597804    3.041158
 H         13.561535   -4.831401    4.877870
 H         14.476558   -4.146637    2.708235
 C         12.714654   -4.875286   -0.924625
 C         12.710692   -6.272234   -0.792732
 C         12.384218   -7.095373   -1.869042
 C         12.045216   -6.559503   -3.118725
 C         12.055429   -5.166078   -3.249018
 C         12.384239   -4.337997   -2.174642
 H         12.955749   -6.724377    0.163692
 H         12.391371   -8.174815   -1.733142
 H         11.801756   -4.715905   -4.206355
 H         12.383631   -3.262085   -2.317768
 C         19.380196   -2.014476    1.097766
 C         19.392031   -0.617744    0.963673
 C         19.717513    0.205638    2.040143
 C         20.047720   -0.329709    3.292445
 C         20.030042   -1.722860    3.424929
 C         19.702332   -2.551051    2.350227
 H         19.153421   -0.165969    0.005405
 H         19.716012    1.284913    1.902557
 H         20.276239   -2.172366    4.384609
 H         19.695401   -3.626967    2.493863
 C         19.449857   -2.405064   -1.435428
 C         20.789230   -2.003141   -1.563652
 C         21.311697   -1.619637   -2.796470
 C         20.520253   -1.620169   -3.953856
 C         19.188934   -2.029325   -3.825370
 C         18.661062   -2.415573   -2.591210
 H         21.430791   -1.982631   -0.687278
 H         22.353962   -1.313903   -2.860144
 H         18.547610   -2.048543   -4.703905
 H         17.624376   -2.730537   -2.537277
 C         11.033886   -5.723198    5.462491
 H         11.020057   -6.818552    5.541072
 H         11.634230   -5.343354    6.295445
 C         11.656894   -7.453457   -4.273041
 H         11.852191   -6.970755   -5.236287
 H         12.207128   -8.400341   -4.249007
 C         20.433905    0.564655    4.447220
 H         19.877972    1.508310    4.426199
 H         20.243624    0.079396    5.410167
 C         21.081044   -1.171455   -5.283032
 H         20.510503   -1.588497   -6.119306
 H         21.050258   -0.077850   -5.379924
 H         10.003234   -5.378046    5.601393
 H         10.587032   -7.700131   -4.243369
 H         21.502155    0.818071    4.415321
 H         22.127143   -1.475474   -5.399798
 H         21.565675   -4.642914    0.033282
 H         10.546490   -2.272343    0.153824
 H         21.126764   -7.225448    0.290439
 C         10.709737    0.584526   -0.125652
 C         10.879776    1.966566   -0.282830
 S          8.993241    0.205508   -0.005216
 C          9.696619    2.696824   -0.307618
 H         11.859024    2.423932   -0.382150
 C          8.525446    1.919635   -0.169417
 H          9.641278    3.767153   -0.432645
 C          7.154814    2.289888   -0.149313
 C          6.684072    3.667206   -0.219349
 C          6.140060    1.285237   -0.065676
 C          5.278886    3.969823   -0.177713
 N          7.569286    4.670680   -0.346550
 C          4.803022    1.570593   -0.054022
 H          6.435688    0.241753   -0.019514
 C          4.286288    2.904199   -0.104229
 N          4.882367    5.253650   -0.182682
 C          7.156240    5.943724   -0.400492
 H          4.107889    0.739093    0.007174
 C          5.779265    6.246010   -0.257147
 C          8.223276    6.952425   -0.654902
 C          5.221730    7.622584   -0.136093
 C          8.057664    7.973451   -1.608655
 C          9.441978    6.842902    0.020786
 C          5.809798    8.581407    0.709073
 C          4.049840    7.948945   -0.824496
 C          9.100666    8.857636   -1.861609
 H          7.124771    8.060679   -2.154909
 C         10.485332    7.744233   -0.229740
 H          9.593766    6.059041    0.755263
 C          5.223628    9.835150    0.843873
 H          6.708827    8.337675    1.264664
 C          3.470128    9.218040   -0.693694
 H          3.575561    7.222689   -1.476112
 C         10.317408    8.760324   -1.177983
 H          8.974866    9.638633   -2.606757
 O         11.622028    7.545968    0.502133
 C          4.058290   10.171007    0.146377
 H          5.673009   10.570535    1.505901
 O          2.335382    9.424391   -1.426444
 H         11.111871    9.465823   -1.391628
 C         12.718679    8.426141    0.292001
 H          3.625100   11.157152    0.266637
 C          1.697815   10.691948   -1.335139
 H         12.453400    9.464117    0.530316
 H         13.505367    8.090277    0.969649
 H         13.083867    8.374945   -0.741681
 H          2.358036   11.500113   -1.674980
 H          0.827819   10.636770   -1.991614
 H          1.366373   10.903160   -0.310455
 C          2.886698    3.127595   -0.069199
 C          2.135983    4.326635   -0.049684
 S          1.757356    1.745578   -0.034172
 C          0.760391    4.144927   -0.009849
 H          2.626568    5.287710   -0.052473
 C          0.346953    2.803285    0.006162
 H          0.055262    4.969633    0.015108
 C         -0.968921    2.280078    0.050539
 C         -1.380186    0.941081    0.103320
 S         -2.380735    3.370706    0.044512
 C         -2.773022    0.800958    0.132125
 H         -0.673646    0.119058    0.126461
 C         -3.454499    2.010489    0.108259
 C         -3.760482   -0.365814    0.229405
 C         -4.877846    1.814406    0.152880
 C         -5.099247    0.410726    0.229460
 C         -3.731915   -1.298618   -0.999288
 C         -3.483926   -1.120749    1.547774
 C         -5.949368    2.724290    0.125034
 C         -6.387616   -0.096598    0.270347
 C         -4.300414   -2.579734   -0.934479
 C         -3.226601   -0.871527   -2.233302
 C         -2.432938   -2.050134    1.611098
 C         -4.183033   -0.847345    2.728242
 C         -7.236484    2.216070    0.164817
 H         -5.766973    3.793812    0.075747
 C         -7.457067    0.812880    0.243356
 H         -6.570137   -1.166032    0.321011
 C         -4.355652   -3.399750   -2.060202
 H         -4.696593   -2.947168    0.007508
 C         -3.281534   -1.697205   -3.357195
 H         -2.785727    0.116068   -2.324822
 C         -2.104222   -2.684498    2.806254
 H         -1.868720   -2.286832    0.713552
 C         -3.850486   -1.487318    3.924734
 H         -4.993998   -0.126799    2.724360
 C         -8.576288    2.991158    0.165532
 C         -8.886233    0.619544    0.292179
 C         -3.843189   -2.977609   -3.294223
 H         -4.804004   -4.387439   -1.975933
 H         -2.878094   -1.335240   -4.300414
 C         -2.809938   -2.419259    3.988856
 H         -1.283748   -3.398908    2.820349
 H         -4.414823   -1.252246    4.824516
 C         -9.561119    1.823530    0.267307
 C         -8.856304    3.743374   -1.153720
 C         -8.603576    3.926993    1.391982
 S         -9.966357   -0.735067    0.364963
 C         -3.871762   -3.882640   -4.503552
 C         -2.468420   -3.131961    5.276375
 C        -10.964333    1.680805    0.310850
 C         -9.913354    4.665817   -1.217846
 C         -8.154840    3.474882   -2.334030
 C         -8.041505    5.210719    1.322771
 C         -9.102374    3.499904    2.628647
 C        -11.366718    0.354801    0.376512
 H         -4.754389   -4.531296   -4.497608
 H         -3.879235   -3.306341   -5.434627
 H         -2.989652   -4.536386   -4.532530
 H         -2.867600   -2.599771    6.145746
 H         -2.886106   -4.147508    5.292878
 H         -1.384526   -3.228393    5.405419
 H        -11.669399    2.504666    0.308237
 C        -10.245819    5.298089   -2.413155
 H        -10.479413    4.898965   -0.320483
 C         -8.491207    4.112473   -3.530658
 H         -7.338876    2.760045   -2.329786
 C         -7.985918    6.033041    2.446822
 H         -7.650447    5.578226    0.378667
 C         -9.047191    4.327857    3.750902
 H         -9.537509    2.509981    2.723108
 C        -12.702695   -0.181712    0.446371
 C         -9.537857    5.037622   -3.595367
 H        -11.070889    6.007210   -2.427584
 H         -7.924695    3.881326   -4.430108
 C         -8.491766    5.610755    3.683558
 H         -7.542394    7.022622    2.359166
 H         -9.445217    3.965744    4.696397
 C        -13.111335   -1.476405    0.708650
 S        -14.100723    0.841667    0.170461
 C         -9.882520    5.748677   -4.882980
 C         -8.462509    6.518184    4.891099
 C        -14.514421   -1.650912    0.699821
 H        -12.416162   -2.282555    0.919434
 C        -15.225942   -0.493583    0.440416
 H         -9.459349    6.761878   -4.904561
 H         -9.490665    5.212171   -5.753074
 H        -10.966519    5.850610   -5.006559
 H         -8.457381    5.943769    5.823342
 H         -7.578320    7.164734    4.884906
 H         -9.342956    7.174280    4.917722
 H        -15.004482   -2.595158    0.886135
 C        -16.664718   -0.241589    0.390368
 C        -17.641122   -1.281480    0.184566
 C        -17.166490    1.049666    0.536201
 C        -19.039335   -0.974416    0.110750
 N        -17.239470   -2.571353    0.090214
 C        -18.534905    1.346554    0.477810
 H        -16.480933    1.872113    0.716357
 C        -19.511084    0.375811    0.274257
 N        -19.924592   -1.967003   -0.146534
 C        -18.120504   -3.537958   -0.103919
 H        -18.830949    2.385640    0.585012
 C        -20.931127    0.736789    0.242360
 C        -19.512273   -3.214335   -0.293463
 C        -17.579729   -4.926112   -0.060829
 C        -22.008559    0.115650   -0.356184
 S        -21.472406    2.215926    1.040970
 C        -20.555608   -4.198059   -0.699942
 C        -18.229742   -5.943786    0.660838
 C        -16.361619   -5.200686   -0.688104
 C        -23.238563    0.814207   -0.192907
 H        -21.909266   -0.815112   -0.895599
 C        -23.110038    1.964151    0.537038
 C        -20.316543   -5.147668   -1.709970
 C        -21.823134   -4.121833   -0.116606
 C        -17.654022   -7.207309    0.737144
 H        -19.166529   -5.740969    1.168190
 C        -15.795126   -6.480779   -0.620691
 H        -15.839401   -4.424144   -1.236480
 H        -24.181505    0.470482   -0.604580
 H        -23.876156    2.674996    0.816777
 C        -21.341077   -5.998858   -2.109563
 H        -19.344015   -5.206282   -2.186108
 C        -22.846539   -4.992988   -0.513244
 H        -22.029650   -3.384099    0.651066
 C        -16.443369   -7.493104    0.097468
 H        -18.149186   -7.990449    1.304741
 O        -14.613362   -6.635781   -1.285825
 C        -22.606802   -5.939184   -1.517241
 H        -21.160471   -6.724472   -2.897936
 O        -24.036233   -4.837000    0.137854
 H        -16.021911   -8.489123    0.167084
 C        -13.984154   -7.911069   -1.253500
 H        -23.384291   -6.620565   -1.842513
 C        -25.117578   -5.687823   -0.222507
 H        -14.619237   -8.684388   -1.703991
 H        -13.070189   -7.807426   -1.840432
 H        -13.726044   -8.206272   -0.228628
 H        -24.877220   -6.742928   -0.040121
 H        -25.953787   -5.392929    0.413423
 H        -25.398368   -5.557459   -1.275299
       270
S1: Total Energy = -9408.98303372
 C         11.703903   -0.423814   -0.016803
 C         11.535140   -1.786782    0.234708
 C         12.748657   -2.492889    0.246698
 C         13.857192   -1.694114    0.014860
 C         15.075472   -2.459275    0.048623
 C         14.709722   -3.803739    0.336425
 C         15.676452   -4.793557    0.417709
 S         13.428171   -0.032315   -0.230912
 C         13.176482   -3.942078    0.495483
 H         15.409014   -5.824894    0.628664
 C         20.370799   -6.454000    0.277643
 C         20.567159   -5.119093    0.028147
 C         19.342203   -4.398065    0.018153
 C         18.242129   -5.194630    0.251518
 C         17.015795   -4.426971    0.217747
 C         17.382195   -3.084512   -0.071173
 C         16.417588   -2.093374   -0.151827
 S         18.681580   -6.855542    0.495821
 C         18.916270   -2.949039   -0.231682
 H         16.685561   -1.062190   -0.362685
 C         12.736056   -4.335446    1.922189
 C         11.409203   -4.729868    2.158940
 C         10.960050   -5.008270    3.447341
 C         11.815101   -4.905358    4.554110
 C         13.133493   -4.504076    4.316516
 C         13.588189   -4.222451    3.026041
 H         10.719595   -4.827452    1.325348
 H          9.925428   -5.310511    3.595590
 H         13.822403   -4.406732    5.152763
 H         14.617308   -3.908609    2.886978
 C         12.657979   -4.927103   -0.572893
 C         12.659333   -6.309013   -0.329267
 C         12.272256   -7.213775   -1.316261
 C         11.864597   -6.777670   -2.584130
 C         11.868806   -5.399198   -2.825966
 C         12.258257   -4.489653   -1.841515
 H         12.956588   -6.684668    0.645319
 H         12.285728   -8.278899   -1.094761
 H         11.562145   -5.025619   -3.800578
 H         12.250339   -3.428608   -2.069995
 C         19.437385   -1.962862    0.834441
 C         19.442098   -0.581228    0.588905
 C         19.832183    0.323366    1.574828
 C         20.237016   -0.112473    2.843794
 C         20.227080   -1.490514    3.087516
 C         19.834605   -2.399835    2.103894
 H         19.146616   -0.205676   -0.386281
 H         19.822720    1.388251    1.351954
 H         20.530703   -1.863590    4.063338
 H         19.836031   -3.460848    2.333142
 C         19.356386   -2.556875   -1.658886
 C         20.685819   -2.172377   -1.897299
 C         21.135524   -1.894644   -3.185885
 C         20.278262   -1.988182   -4.291549
 C         18.957013   -2.379866   -4.052694
 C         18.501943   -2.660318   -2.762230
 H         21.377202   -2.081738   -1.064334
 H         22.172065   -1.599247   -3.334964
 H         18.265790   -2.469197   -4.887974
 H         17.470323   -2.965320   -2.622387
 C         11.331015   -5.237146    5.946186
 H         11.311428   -6.322394    6.113556
 H         11.981684   -4.800055    6.710422
 C         11.411290   -7.758717   -3.639843
 H         11.554239   -7.356007   -4.648022
 H         11.959890   -8.704286   -3.570022
 C         20.692019    0.868909    3.898511
 H         20.128891    1.806877    3.842408
 H         20.569370    0.458584    4.906245
 C         20.761177   -1.654324   -5.683588
 H         20.130952   -2.120234   -6.448073
 H         20.744630   -0.570772   -5.862125
 H         10.313292   -4.867665    6.114851
 H         10.344131   -7.995123   -3.531935
 H         21.753854    1.121788    3.776254
 H         21.791993   -1.990507   -5.841492
 H         21.546897   -4.686620   -0.140431
 H         10.559819   -2.229298    0.403635
 H         21.114271   -7.236995    0.346169
 C         10.713971    0.598587   -0.112369
 C         10.879705    1.959506   -0.361838
 S          9.004534    0.237016    0.090952
 C          9.687124    2.692977   -0.391743
 H         11.854095    2.409931   -0.522633
 C          8.534288    1.931874   -0.169800
 H          9.628297    3.754314   -0.578204
 C          7.143617    2.302216   -0.136609
 C          6.677885    3.668572   -0.221024
 C          6.144488    1.306017   -0.022579
 C          5.271813    3.973604   -0.161748
 N          7.566891    4.673836   -0.380194
 C          4.796539    1.594466    0.004526
 H          6.437923    0.262193    0.032366
 C          4.289339    2.914668   -0.061729
 N          4.872854    5.263203   -0.174431
 C          7.149632    5.942422   -0.440926
 H          4.104832    0.762057    0.091499
 C          5.772033    6.249085   -0.275699
 C          8.210000    6.949722   -0.728872
 C          5.222382    7.628746   -0.157308
 C          8.023554    7.963864   -1.686571
 C          9.445560    6.843787   -0.083394
 C          5.835173    8.598383    0.658240
 C          4.030484    7.949451   -0.814301
 C          9.061166    8.844345   -1.972205
 H          7.077937    8.048143   -2.210951
 C         10.483579    7.741381   -0.366599
 H          9.614265    6.063683    0.651292
 C          5.255056    9.854673    0.794177
 H          6.749295    8.360406    1.191154
 C          3.456628    9.220846   -0.682634
 H          3.536450    7.215147   -1.441682
 C         10.294417    8.750687   -1.318001
 H          8.918136    9.619512   -2.720439
 O         11.638307    7.546797    0.338795
 C          4.069951   10.184016    0.127174
 H          5.724694   10.597455    1.433627
 O          2.300245    9.419930   -1.384503
 H         11.084478    9.453173   -1.556595
 C         12.730537    8.422751    0.093775
 H          3.641710   11.172308    0.247595
 C          1.668718   10.689893   -1.291241
 H         12.473553    9.463421    0.329871