       146
S0: Total Energy = -9748.17424764
 C        -11.569740   -8.158781   -0.144294
 C        -12.369153   -7.087362    0.087603
 C        -11.643754   -5.843053    0.154257
 C        -10.246173   -6.036342   -0.050048
 S         -9.878206   -7.743628   -0.301733
 H        -13.443605   -7.159678    0.199948
 C        -12.161245   -4.537650    0.338783
 C         -9.317177   -4.987955   -0.093221
 C        -11.234038   -3.490889    0.295260
 C         -9.835587   -3.682515    0.089982
 C         -9.112150   -2.446226    0.164961
 C         -9.899015   -1.350515    0.400794
 S        -11.611091   -1.786635    0.538804
 H         -8.034121   -2.386313    0.075696
 C        -13.593340   -4.272964    0.562936
 C        -14.420157   -3.422854   -0.130386
 C        -15.749836   -3.369890    0.383745
 C        -15.953573   -4.170572    1.476120
 S        -14.478637   -5.013790    1.891955
 H        -14.090121   -2.865457   -1.000437
 H        -16.535886   -2.758784   -0.048505
 C         -7.885903   -5.251487   -0.316783
 C         -7.062549   -6.112780    0.367163
 C         -5.732821   -6.163807   -0.145902
 C         -5.525648   -5.351156   -1.228885
 S         -6.996496   -4.497565   -1.636037
 H         -7.395693   -6.679771    1.229671
 H         -4.949127   -6.782370    0.279948
 C         -9.502071    0.031588    0.541092
 C        -10.248142    1.095876    1.013515
 C         -9.560350    2.328606    1.009706
 C         -8.264488    2.242028    0.534409
 S         -7.907622    0.576306    0.064077
 H        -11.266471    0.987224    1.371160
 H         -9.987874    3.259248    1.349177
 C         -7.215435    3.240338    0.456845
 C         -7.216085    4.614042    0.212860
 C         -5.889281    5.198635    0.210190
 C         -4.875351    4.271751    0.449732
 S         -5.572631    2.685766    0.708187
 C         -8.420827    5.412929   -0.128405
 O         -9.569972    4.976674   -0.026694
 C         -5.665253    6.627288   -0.130266
 O         -4.567613    7.180061   -0.026900
 C         -9.141228    7.628861   -1.091860
 C         -8.163486    6.777666   -0.619685
 C         -6.846071    7.358354   -0.620828
 C         -6.815304    8.654067   -1.093801
 S         -8.421806    9.147038   -1.549066
 C         -3.430116    4.373742    0.517146
 C         -2.618974    5.380196    1.007987
 C         -1.244373    5.060618    0.991908
 C         -0.962009    3.804542    0.485556
 S         -2.443041    2.999367    0.009266
 H         -3.017345    6.315303    1.370225
 H         -0.476201    5.736313    1.352633
 C        -17.211949   -4.365453    2.268622
 H        -17.085820   -4.069179    3.316944
 H        -18.013758   -3.755647    1.841053
 H        -17.542759   -5.411000    2.261344
 C         -4.266246   -5.152508   -2.018460
 H         -4.393805   -5.434272   -3.070605
 H         -3.468108   -5.772329   -1.598302
 H         -3.930068   -4.108822   -1.996917
 C        -10.616680    7.411391   -1.238020
 H        -11.084386    7.267624   -0.258114
 H        -11.097181    8.260125   -1.733327
 H        -10.817281    6.504124   -1.815800
 C         -5.659287    9.595794   -1.243566
 H         -4.860473    9.135155   -1.832765
 H         -5.964765   10.527003   -1.729465
 H         -5.228057    9.835676   -0.265874
 H        -11.869002   -9.194899   -0.236580
 C          0.326331    3.175985    0.313277
 C          0.606596    1.893802   -0.081767
 S          1.802862    4.103214    0.629656
 C          2.005435    1.593265   -0.148042
 H         -0.164321    1.165260   -0.302313
 C          2.806464    2.710460    0.232998
 C          2.618737    0.357994   -0.478956
 C          4.201742    2.670209    0.319456
 C          4.014050    0.316860   -0.390654
 C          1.848674   -0.825402   -0.896970
 C          4.814523    1.433887   -0.008127
 C          4.973088    3.856334    0.727740
 S          5.019088   -1.076064   -0.786108
 C          1.890820   -2.096661   -0.377666
 S          0.749749   -0.777922   -2.271494
 C          6.213170    1.133769   -0.072929
 C          4.929699    5.123245    0.197843
 S          6.081359    3.819005    2.095099
 C          6.494320   -0.148077   -0.467946
 C          1.047387   -3.022551   -1.060165
 H          2.494159   -2.357228    0.485244
 C          0.358384   -2.474379   -2.109538
 H          6.983943    1.863280    0.144526
 C          5.779687    6.053432    0.866146
 H          4.321381    5.377274   -0.663533
 C          6.475415    5.513274    1.915249
 C          7.786172   -0.770530   -0.636739
 H          0.950215   -4.065868   -0.776981
 C         -0.609337   -3.140955   -3.041346
 H          5.877434    7.093872    0.572827
 C          7.451631    6.186332    2.833655
 C          8.088693   -1.995225   -1.204105
 S          9.247875    0.009257   -0.069619
 H         -0.274787   -3.090428   -4.084450
 H         -0.711667   -4.196715   -2.772041
 H         -1.604271   -2.681673   -2.994517
 H          7.122022    6.150120    3.878947
 H          7.557894    7.238066    2.550717
 H          8.443999    5.722044    2.786808
 C          9.465689   -2.308011   -1.200257
 H          7.334473   -2.650252   -1.627108
 C         10.257583   -1.327487   -0.630853
 H          9.879840   -3.218605   -1.604764
 C         11.698963   -1.215074   -0.512779
 C         12.722088   -2.141541   -0.314348
 S         12.376095    0.397602   -0.615048
 C         14.036696   -1.534915   -0.219626
 C         12.517623   -3.596426   -0.101105
 C         14.016752   -0.147741   -0.342618
 C         15.247556   -2.338816    0.087782
 O         11.437110   -4.160159   -0.291750
 C         13.695680   -4.342699    0.374634
 C         15.045250    0.878053   -0.279125
 O         16.390372   -1.877936    0.046069
 C         15.001066   -3.741609    0.465208
 C         13.674022   -5.671035    0.746543
 C         16.351443    0.877968   -0.726006
 S         14.636547    2.468021    0.375290
 C         15.978145   -4.609644    0.906572
 S         15.273086   -6.170287    1.221464
 C         12.531820   -6.640457    0.782028
 C         17.010487    2.125256   -0.553813
 H         16.811074    0.003633   -1.161058
 C         16.215642    3.078712    0.025167
 C         17.443144   -4.378826    1.121798
 H         12.147590   -6.820951   -0.227556
 H         12.834699   -7.597312    1.217046
 H         11.699522   -6.234286    1.364809
 H         18.038682    2.304604   -0.848289
 H         17.606064   -3.501305    1.754540
 H         17.918293   -5.246208    1.589204
 H         17.946063   -4.175818    0.170042
 H         16.467527    4.099201    0.281667
       146
T1: Total Energy = -9748.12299638
 C         11.174596   -8.219977    0.780561
 C         11.924799   -7.258590    0.184997
 C         11.264720   -5.978674    0.129538
 C          9.970581   -6.026617    0.726434
 S          9.613078   -7.648895    1.321378
 H         12.921921   -7.434045   -0.198734
 C         11.769933   -4.756245   -0.378328
 C          9.136820   -4.908376    0.858376
 C         10.938390   -3.639866   -0.247706
 C          9.641507   -3.686672    0.346061
 C          8.981699   -2.418002    0.281879
 C          9.722964   -1.427421   -0.312085
 S         11.309872   -2.020401   -0.835759
 H          7.976308   -2.256281    0.651484
 C         13.096442   -4.644540   -1.010320
 C         14.123470   -3.791436   -0.687570
 C         15.261103   -3.915748   -1.539408
 C         15.115618   -4.856736   -2.523954
 S         13.542992   -5.613913   -2.409998
 H         14.073739   -3.106563    0.152155
 H         16.165520   -3.327244   -1.421592
 C          7.815819   -5.015758    1.498799
 C          6.798183   -5.893259    1.211491
 C          5.665115   -5.756712    2.066670
 C          5.804332   -4.782364    3.019608
 S          7.364600   -4.007773    2.870246
 H          6.851247   -6.603949    0.393883
 H          4.768407   -6.361453    1.974648
 C          9.360301   -0.052258   -0.534552
 C         10.083288    0.936401   -1.186719
 C          9.449813    2.190264   -1.218267
 C          8.207480    2.212149   -0.590084
 S          7.848659    0.600339    0.061308
 H         11.051790    0.753469   -1.639888
 H          9.863806    3.065969   -1.690881
 C          7.208577    3.238942   -0.461995
 C          7.251368    4.646464   -0.390479
 C          5.977322    5.257997   -0.146828
 C          4.892612    4.319292   -0.123560
 S          5.548064    2.681476   -0.302868
 C          8.498512    5.455156   -0.487958
 O          9.584599    4.973045   -0.819778
 C          5.858675    6.684377    0.205047
 O          4.792794    7.208435    0.562476
 C          9.415749    7.781964   -0.177471
 C          8.366931    6.884446   -0.177881
 C          7.099197    7.475471    0.151707
 C          7.173927    8.828753    0.406756
 S          8.824504    9.365481    0.235273
 C          3.495910    4.439562   -0.060991
 C          2.633599    5.568114   -0.225884
 C          1.293970    5.266231   -0.205390
 C          0.992066    3.889863   -0.022347
 S          2.500648    2.971131    0.142590
 H          3.035142    6.560826   -0.351083
 H          0.515606    6.011291   -0.333352
 C         16.095286   -5.253207   -3.588196
 H         15.696823   -5.082634   -4.595518
 H         17.010283   -4.662068   -3.484121
 H         16.368332   -6.313094   -3.519098
 C          4.827148   -4.365254    4.078193
 H          5.234693   -4.499285    5.087385
 H          3.919188   -4.971175    3.999832
 H          4.540920   -3.311283    3.978689
 C         10.869591    7.562055   -0.465161
 H         11.010197    7.200641   -1.489298
 H         11.444873    8.483401   -0.336184
 H         11.281518    6.793338    0.196292
 C          6.096919    9.800737    0.783108
 H          5.661897    9.539967    1.753712
 H          6.484305   10.822488    0.837107
 H          5.279338    9.770366    0.056508
 H         11.442251   -9.256068    0.943360
 C         -0.259302    3.270279    0.035126
 C         -0.540278    1.897362    0.156811
 S         -1.763255    4.217056   -0.046557
 C         -1.910895    1.582170    0.191509
 H          0.245115    1.152528    0.186216
 C         -2.741744    2.749207    0.070616
 C         -2.512690    0.283957    0.265965
 C         -4.126669    2.706241    0.002777
 C         -3.905443    0.245681    0.198696
 C         -1.721597   -0.945474    0.399879
 C         -4.727215    1.408767    0.079119
 C         -4.925466    3.934760   -0.133861
 S         -4.893346   -1.210525    0.323636
 C         -1.812152   -2.098325   -0.345376
 S         -0.518956   -1.152718    1.671666
 C         -6.109135    1.092287    0.116956
 C         -4.888159    5.064557    0.647386
 S         -6.065640    4.161037   -1.456890
 C         -6.381211   -0.256413    0.243150
 C         -0.928206   -3.129995    0.083831
 H         -2.475724   -2.193902   -1.197891
 C         -0.157285   -2.785356    1.163038
 H         -6.889307    1.842836    0.077085
 C         -5.766163    6.097108    0.203945
 H         -4.263998    5.145168    1.530828
 C         -6.478288    5.773571   -0.920650
 C         -7.659947   -0.902292    0.312259
 H         -0.858936   -4.099403   -0.399116
 C          0.873281   -3.611129    1.873550
 H         -5.872171    7.051872    0.709086
 C         -7.484599    6.604882   -1.659279
 C         -7.944687   -2.240218    0.549794
 S         -9.147965   -0.007730    0.061623
 H          0.622365   -3.756406    2.931170
 H          0.940447   -4.597446    1.404284
 H          1.866734   -3.148591    1.831892
 H         -7.180685    6.789119   -2.696672
 H         -7.595232    7.574297   -1.163837
 H         -8.470204    6.124900   -1.686882
 C         -9.317949   -2.547460    0.543585
 H         -7.173922   -2.980661    0.735540
 C        -10.136421   -1.453491    0.303902
 H         -9.717629   -3.535044    0.712927
 C        -11.577889   -1.322714    0.307226
 C        -12.626614   -2.182875   -0.027926
 S        -12.227539    0.224406    0.816759
 C        -13.935610   -1.572952    0.107874
 C        -12.458751   -3.548540   -0.582796
 C        -13.889377   -0.248975    0.538923
 C        -15.176763   -2.289038   -0.285354
 O        -11.373511   -4.135468   -0.613334
 C        -13.678477   -4.174390   -1.122307
 C        -14.904818    0.763531    0.777471
 O        -16.306800   -1.849805   -0.060992
 C        -14.978453   -3.571947   -0.981307
 C        -13.702204   -5.387256   -1.779633
 C        -16.179798    0.662853    1.297986
 S        -14.514783    2.460763    0.474388
 C        -15.996996   -4.322867   -1.530688
 S        -15.338314   -5.773007   -2.233999
 C        -12.579771   -6.322297   -2.113758
 C        -16.829292    1.916800    1.455984
 H        -16.623960   -0.287111    1.553345
 C        -16.058754    2.976462    1.056381
 C        -17.470142   -4.052852   -1.581758
 H        -12.115076   -6.708969   -1.200616
 H        -12.930707   -7.167419   -2.713024
 H        -11.793501   -5.799227   -2.666662
 H        -17.833677    2.025103    1.850353
 H        -17.665792   -3.062337   -2.003331
 H        -17.991820   -4.803035   -2.183035
 H        -17.898082   -4.053556   -0.573505
 H        -16.311314    4.028529    1.054036
       146
S1: Total Energy = -9748.10476106
 C         11.009624   -8.326558    0.431213
 C         11.785705   -7.347359   -0.101542
 C         11.150552   -6.055712   -0.094767
 C          9.847598   -6.110951    0.482098
 S          9.453433   -7.756656    0.983635
 H         12.784769   -7.520727   -0.481016
 C         11.688002   -4.815280   -0.526014
 C          9.033964   -4.985656    0.668020
 C         10.878314   -3.692597   -0.342719
 C          9.569888   -3.745192    0.229411
 C          8.936192   -2.466475    0.224611
 C          9.707264   -1.454330   -0.302682
 S         11.290292   -2.050873   -0.835045
 H          7.928874   -2.304142    0.588422
 C         13.025276   -4.696406   -1.132707
 C         14.061936   -3.878962   -0.752803
 C         15.209395   -3.980012   -1.594174
 C         15.062192   -4.867095   -2.627416
 S         13.475654   -5.601355   -2.573756
 H         14.011948   -3.237116    0.120217
 H         16.121784   -3.414251   -1.434312
 C          7.706295   -5.101787    1.288579
 C          6.684887   -5.962163    0.961630
 C          5.545965   -5.848662    1.811049
 C          5.683546   -4.910193    2.800092
 S          7.248705   -4.139785    2.691444
 H          6.739403   -6.642437    0.118731
 H          4.646062   -6.443226    1.689566
 C          9.375428   -0.068062   -0.453142
 C         10.160568    0.955184   -0.975021
 C          9.546957    2.214788   -0.971744
 C          8.253756    2.215322   -0.446932
 S          7.824017    0.568983    0.059858
 H         11.162696    0.788296   -1.355585
 H         10.009580    3.114252   -1.344178
 C          7.262806    3.248638   -0.342839
 C          7.315013    4.650581   -0.210036
 C          6.025065    5.273676   -0.086073
 C          4.943858    4.355673   -0.162801
 S          5.584460    2.721703   -0.359958
 C          8.575039    5.435414   -0.112517
 O          9.690143    4.940877   -0.300241
 C          5.885364    6.712242    0.224775
 O          4.790166    7.271712    0.372657
 C          9.481860    7.728323    0.408476
 C          8.427065    6.857492    0.225984
 C          7.136861    7.469982    0.384278
 C          7.200647    8.814241    0.688688
 S          8.868488    9.314379    0.781856
 C          3.527186    4.483577   -0.147909
 C          2.683292    5.578033   -0.418253
 C          1.328648    5.270118   -0.410798
 C          1.035419    3.924887   -0.135238
 S          2.532967    3.036654    0.138788
 H          3.082522    6.559998   -0.614528
 H          0.554622    6.002775   -0.614068
 C         16.050122   -5.226157   -3.697239
 H         15.669097   -4.997164   -4.699711
 H         16.973618   -4.657732   -3.550526
 H         16.303621   -6.292957   -3.678945
 C          4.700312   -4.526224    3.865243
 H          5.101446   -4.693129    4.872075
 H          3.792135   -5.127964    3.761577
 H          4.416276   -3.469026    3.797858
 C         10.957616    7.481800    0.329442
 H         11.239208    7.142274   -0.672800
 H         11.525686    8.386023    0.566475
 H         11.253614    6.687621    1.022245
 C          6.099580    9.802188    0.927853
 H          5.479068    9.492057    1.774859
 H          6.498000   10.800620    1.131114
 H          5.435575    9.857416    0.059388
 H         11.256478   -9.374846    0.539591
 C         -0.228122    3.295684   -0.060867
 C         -0.510006    1.945616    0.154622
 S         -1.720221    4.233731   -0.256077
 C         -1.882047    1.630639    0.176120
 H          0.273132    1.205680    0.264294
 C         -2.707514    2.783011   -0.057438
 C         -2.487801    0.337662    0.329849
 C         -4.090437    2.733989   -0.170328
 C         -3.873261    0.290644    0.216724
 C         -1.700586   -0.872853    0.588038
 C         -4.694773    1.442141   -0.018097
 C         -4.881386    3.945502   -0.425737
 S         -4.866349   -1.155780    0.420210
 C         -1.774755   -2.088407   -0.053551
 S         -0.530337   -0.965530    1.903389
 C         -6.070584    1.128544    0.001302
 C         -4.834901    5.147334    0.241380
 S         -6.020385    4.051463   -1.765803
 C         -6.352748   -0.214816    0.219486
 C         -0.904855   -3.077096    0.488433
 H         -2.415664   -2.259519   -0.911491
 C         -0.161077   -2.637051    1.552579
 H         -6.850460    1.871197   -0.114256
 C         -5.703627    6.138039   -0.301327
 H         -4.213268    5.308306    1.115436
 C         -6.417968    5.711828   -1.390418
 C         -7.625890   -0.844542    0.291429
 H         -0.825348   -4.085839    0.096001
 C          0.847324   -3.395769    2.362063
 H         -5.802667    7.138063    0.108593
 C         -7.416565    6.475270   -2.208141
 C         -7.928001   -2.175081    0.589479
 S         -9.109083    0.043795   -0.032150
 H          0.566838   -3.445846    3.421003
 H          0.925496   -4.419972    1.984880
 H          1.842328   -2.937883    2.307279
 H         -7.111014    6.552822   -3.258402
 H         -7.518254    7.489863   -1.811210
 H         -8.406274    6.003471   -2.188748
 C         -9.293645   -2.474743    0.575052
 H         -7.164039   -2.908680    0.824620
 C        -10.113329   -1.386224    0.266548
 H         -9.704326   -3.449694    0.784242
 C        -11.543072   -1.248185    0.239339
 C        -12.612517   -2.141493    0.041003
 S        -12.178738    0.371098    0.502579
 C        -13.910058   -1.499689    0.093644
 C        -12.470299   -3.570659   -0.309532
 C        -13.847335   -0.122629    0.311377
 C        -15.167942   -2.250238   -0.160068
 O        -11.384620   -4.165204   -0.311228
 C        -13.710609   -4.269521   -0.688092
 C        -14.845429    0.928281    0.393396
 O        -16.287896   -1.757026   -0.004735
 C        -15.001755   -3.637573   -0.620017
 C        -13.763356   -5.579541   -1.119459
 C        -16.126488    0.931112    0.912811
 S        -14.419257    2.558206   -0.148665
 C        -16.042594   -4.460779   -0.998142
 S        -15.416376   -6.020762   -1.449214
 C        -12.660162   -6.574641   -1.317030
 C        -16.749816    2.206702    0.882173
 H        -16.591006    0.037888    1.300925
 C        -15.955219    3.182461    0.339785
 C        -17.514198   -4.183957   -1.056549
 H        -12.148904   -6.777467   -0.370236
 H        -13.042505   -7.518006   -1.718044
 H        -11.902817   -6.181141   -2.002083
 H        -17.753701    2.390890    1.248789
 H        -17.716442   -3.300685   -1.670240
 H        -18.063267   -5.034693   -1.470463
 H        -17.906137   -3.966250   -0.057381
 H        -16.186354    4.227865    0.183532
