       158
S0: Total Energy = -8465.15121412
 C         11.215522   -8.378341   -0.231951
 C         12.066861   -7.328715   -0.349113
 C         11.394537   -6.053029   -0.386230
 C          9.978945   -6.198760   -0.284594
 S          9.532758   -7.903489   -0.154650
 H         13.143489   -7.435924   -0.400740
 C         11.975906   -4.766208   -0.463329
 C          9.093112   -5.117582   -0.241472
 C         11.091717   -3.686265   -0.419198
 C          9.675562   -3.830701   -0.314902
 C          9.004914   -2.563119   -0.360211
 C          9.844308   -1.488522   -0.483187
 S         11.545191   -1.984954   -0.544840
 H          7.925803   -2.466527   -0.331934
 C          9.504341   -0.086629   -0.565995
 C         10.299520    0.972139   -0.964351
 C          9.652136    2.226302   -0.924570
 C          8.339215    2.163277   -0.492994
 S          7.915702    0.490062   -0.108971
 H         11.324103    0.844653   -1.297024
 H         10.119443    3.156224   -1.208668
 C          7.316564    3.186944   -0.401256
 C          7.345143    4.555849   -0.129032
 C          6.030607    5.168755   -0.121936
 C          4.998021    4.268987   -0.382383
 S          5.662805    2.674976   -0.673558
 C          8.563022    5.322886    0.234908
 O          9.703742    4.862963    0.139201
 C          5.834135    6.595945    0.239395
 O          4.747807    7.171663    0.140469
 C          9.325422    7.511058    1.229224
 C          8.332087    6.686926    0.741759
 C          7.027644    7.296146    0.743523
 C          7.022361    8.586659    1.231412
 S          8.636774    9.039320    1.700288
 C          3.554773    4.398413   -0.446487
 C          2.757893    5.425476   -0.916955
 C          1.378034    5.127048   -0.901689
 C          1.077195    3.867740   -0.414588
 S          2.547676    3.028446    0.034752
 H          3.169495    6.362016   -1.260363
 H          0.618776    5.825374   -1.237316
 C         10.794903    7.259897    1.381475
 H         11.264587    7.112092    0.403163
 H         11.291393    8.094372    1.885156
 H         10.972203    6.344658    1.954276
 C          5.885997    9.551318    1.386067
 H          5.076215    9.103021    1.969856
 H          6.209728   10.472079    1.879987
 H          5.462205    9.807741    0.409330
 H         11.468608   -9.429656   -0.183290
 C         -0.219433    3.255788   -0.242398
 C         -0.522556    2.036759    0.305083
 S         -1.675097    4.114744   -0.778000
 C         -1.922734    1.734192    0.328429
 H          0.231498    1.356609    0.683801
 C         -2.702997    2.783749   -0.243732
 C         -2.547480    0.552453    0.795883
 C         -4.088634    2.719116   -0.398215
 C         -3.933132    0.486987    0.640051
 C         -4.712703    1.534841    0.063747
 S         -4.961950   -0.844206    1.173175
 C         -6.113226    1.234115    0.089074
 C         -6.417085    0.018078    0.642616
 H         -6.868579    1.920400   -0.275654
 C         -7.715847   -0.586674    0.823387
 C         -8.048595   -1.721956    1.539905
 S         -9.144078    0.090661    0.069553
 C         -9.422458   -2.045948    1.502171
 H         -7.318711   -2.303337    2.093138
 C        -10.182639   -1.164201    0.755584
 H         -9.857165   -2.894613    2.007100
 C        -11.614705   -1.085226    0.539982
 C        -12.624252   -2.040913    0.426058
 S        -12.298452    0.517836    0.358513
 C        -13.931918   -1.467975    0.166237
 C        -12.407226   -3.509130    0.446754
 C        -13.920188   -0.078108    0.078062
 C        -15.123039   -2.320331   -0.082287
 O        -11.338327   -4.028281    0.778002
 C        -13.556595   -4.330142    0.027293
 C        -14.943343    0.916820   -0.200287
 O        -16.266475   -1.868604   -0.176231
 C        -14.855400   -3.762193   -0.225414
 C        -13.513157   -5.699572   -0.134228
 C        -16.273985    0.972976    0.163243
 S        -14.496017    2.392876   -1.063289
 C        -15.806044   -4.696865   -0.580015
 S        -15.083209   -6.280603   -0.613011
 C        -12.370129   -6.652635    0.042200
 C        -16.921259    2.173893   -0.235012
 H        -16.759010    0.170688    0.698079
 C        -16.093036    3.035640   -0.903963
 C        -17.257329   -4.515717   -0.906806
 H        -12.040833   -6.671224    1.086600
 H        -12.648781   -7.667924   -0.254675
 H        -11.507652   -6.334315   -0.551208
 H        -17.965209    2.386630   -0.032551
 H        -17.385527   -3.756841   -1.684492
 H        -17.708555   -5.452011   -1.247793
 H        -17.809209   -4.161132   -0.029633
 H        -16.329002    4.003112   -1.326995
 C         13.447598   -4.578609   -0.591124
 C         14.152440   -5.124932   -1.675962
 C         14.169528   -3.844205    0.362852
 C         15.528429   -4.940883   -1.799131
 H         13.613296   -5.682705   -2.436803
 C         15.546331   -3.664809    0.233802
 H         13.650908   -3.420542    1.218320
 C         16.252195   -4.210769   -0.846148
 H         16.048120   -5.365849   -2.655011
 H         16.081404   -3.093223    0.988744
 C          7.621411   -5.304746   -0.123019
 C          6.905178   -4.743033    0.946398
 C          6.908127   -6.046699   -1.078127
 C          5.527049   -4.920962    1.054634
 H          7.435239   -4.171452    1.703340
 C          5.529539   -6.219434   -0.964196
 H          7.434385   -6.473820   -1.927047
 C          4.813546   -5.664472    0.104646
 H          4.997270   -4.476545    1.894189
 H          5.000183   -6.789480   -1.724303
 C         -1.769227   -0.548157    1.427010
 C         -0.991841   -0.314424    2.572928
 C         -1.793763   -1.848916    0.898922
 C         -0.269824   -1.347046    3.168639
 H         -0.962936    0.681866    3.005508
 C         -1.068390   -2.876712    1.499765
 H         -2.368894   -2.052144   -0.000029
 C         -0.297310   -2.647624    2.647089
 H          0.321802   -1.139269    4.057317
 H         -1.097471   -3.872984    1.064378
 C         -4.869553    3.824740   -1.017328
 C         -4.846756    5.119256   -0.474330
 C         -5.651490    3.601694   -2.162381
 C         -5.579618    6.151248   -1.058906
 H         -4.267774    5.313926    0.424051
 C         -6.380670    4.638423   -2.741780
 H         -5.679125    2.610356   -2.606331
 C         -6.356463    5.932766   -2.204246
 H         -5.552829    7.142235   -0.611555
 H         -6.976402    4.438822   -3.629624
 C         17.748197   -4.039595   -0.967469
 H         18.282446   -4.869411   -0.485561
 H         18.064823   -4.016143   -2.015555
 H         18.085664   -3.114684   -0.488361
 C          3.324802   -5.880706    0.241437
 H          2.842554   -5.036252    0.745372
 H          2.847717   -6.012339   -0.735332
 H          3.108418   -6.780307    0.833178
 C          0.459807   -3.771215    3.314890
 H          0.783578   -4.523964    2.588087
 H          1.345610   -3.400521    3.841150
 H         -0.167024   -4.285337    4.055739
 C         -7.124109    7.060282   -2.853149
 H         -8.033312    6.696211   -3.343056
 H         -7.412220    7.821918   -2.121125
 H         -6.518965    7.559777   -3.621538
       158
T1: Total Energy = -8465.09989606
 C         10.855597   -8.465873   -0.401044
 C         11.728881   -7.456790   -0.153966
 C         11.112048   -6.154202   -0.175056
 C          9.713789   -6.236081   -0.448935
 S          9.217522   -7.916622   -0.675892
 H         12.781372   -7.614136    0.047737
 C         11.719121   -4.901150    0.078546
 C          8.866228   -5.124935   -0.472979
 C         10.874261   -3.791132    0.054312
 C          9.474288   -3.871539   -0.218545
 C          8.860611   -2.579667   -0.242772
 C          9.723606   -1.539054    0.004275
 S         11.379255   -2.114996    0.282528
 H          7.807640   -2.432789   -0.452830
 C          9.432461   -0.133960    0.052760
 C         10.307661    0.926526    0.265798
 C          9.703921    2.189575    0.231015
 C          8.325638    2.156931   -0.001709
 S          7.806374    0.470495   -0.195281
 H         11.368630    0.784036    0.441433
 H         10.238769    3.114925    0.372706
 C          7.332754    3.185570   -0.012320
 C          7.378310    4.593077   -0.160204
 C          6.109376    5.235763   -0.033338
 C          5.013945    4.315033    0.114532
 S          5.666167    2.668921    0.252197
 C          8.602607    5.362831   -0.524235
 O          9.679719    4.820988   -0.784168
 C          5.994219    6.704557    0.045716
 O          4.954445    7.283928    0.392105
 C          9.477338    7.699768   -0.882073
 C          8.454887    6.823260   -0.580731
 C          7.206049    7.470341   -0.287905
 C          7.268579    8.845590   -0.360583
 S          8.884056    9.334384   -0.802334
 C          3.620486    4.448679    0.101635
 C          2.772120    5.562745   -0.191249
 C          1.429943    5.266598   -0.199095
 C          1.111900    3.916705    0.097926
 S          2.604748    3.007887    0.392348
 H          3.183244    6.541404   -0.380625
 H          0.662237    6.001115   -0.419524
 C         10.907789    7.424434   -1.231931
 H         10.972972    6.808097   -2.134463
 H         11.462839    8.352098   -1.398655
 H         11.397918    6.859299   -0.432494
 C          6.202534    9.872557   -0.126702
 H          5.867255    9.852269    0.915691
 H          6.561771   10.879575   -0.358422
 H          5.322667    9.660845   -0.741844
 H         11.068994   -9.526342   -0.440423
 C         -0.149446    3.309369    0.177620
 C         -0.446196    1.970425    0.462822
 S         -1.639004    4.245585   -0.093941
 C         -1.824995    1.666728    0.479150
 H          0.326322    1.231359    0.637831
 C         -2.638743    2.810930    0.176624
 C         -2.433959    0.396624    0.705777
 C         -4.020243    2.763011    0.063907
 C         -3.820343    0.351562    0.589923
 C         -4.627409    1.491851    0.283874
 S         -4.826447   -1.073501    0.864944
 C         -6.015439    1.182783    0.296313
 C         -6.301761   -0.134083    0.586072
 H         -6.785371    1.923613    0.114882
 C         -7.588356   -0.767617    0.677194
 C         -7.892129   -2.058516    1.082758
 S         -9.055012    0.080284    0.224648
 C         -9.266122   -2.366728    1.045262
 H         -7.136519   -2.764297    1.410993
 C        -10.063401   -1.319634    0.611195
 H         -9.679600   -3.321869    1.329068
 C        -11.503016   -1.193245    0.517273
 C        -12.535131   -2.093712    0.244417
 S        -12.172244    0.405985    0.778718
 C        -13.847232   -1.474926    0.225489
 C        -12.343076   -3.521784   -0.109867
 C        -13.818655   -0.105219    0.477239
 C        -15.068354   -2.240656   -0.135264
 O        -11.259341   -4.102860   -0.005583
 C        -13.536170   -4.221034   -0.618129
 C        -14.841903    0.926399    0.525521
 O        -16.206459   -1.775602   -0.041487
 C        -14.839182   -3.608683   -0.630928
 C        -13.531237   -5.514837   -1.097539
 C        -16.142047    0.890561    0.988734
 S        -14.431709    2.569858    0.020718
 C        -15.831272   -4.433088   -1.120069
 S        -15.143538   -5.966241   -1.575642
 C        -12.397307   -6.484592   -1.238109
 C        -16.795065    2.151949    0.945992
 H        -16.601595   -0.018851    1.344751
 C        -16.001867    3.152334    0.449675
 C        -17.298750   -4.177788   -1.284082
 H        -11.979779   -6.734816   -0.257102
 H        -12.721606   -7.408090   -1.726570
 H        -11.582769   -6.043776   -1.820952
 H        -17.817985    2.307673    1.270708
 H        -17.468690   -3.259707   -1.854466
 H        -17.792969   -5.008983   -1.795339
 H        -17.776686   -4.033045   -0.309219
 H        -16.250677    4.193917    0.295294
 C         13.178496   -4.779740    0.348776
 C         14.124539   -5.212200   -0.594627
 C         13.648672   -4.223625    1.548851
 C         15.490014   -5.091078   -0.343495
 H         13.785360   -5.630128   -1.538531
 C         15.016387   -4.106430    1.793818
 H         12.938212   -3.891730    2.300775
 C         15.962351   -4.539555    0.855621
 H         16.201472   -5.424284   -1.095777
 H         15.353489   -3.674045    2.733154
 C          7.408901   -5.244464   -0.748026
 C          6.458555   -4.783569    0.178325
 C          6.943349   -5.817329   -1.942069
 C          5.094572   -4.894086   -0.083443
 H          6.793133   -4.344852    1.114376
 C          5.576711   -5.923346   -2.197703
 H          7.656681   -6.162008   -2.685264
 C          4.627146   -5.467771   -1.274267
 H          4.380308   -4.530184    0.651772
 H          5.243549   -6.360554   -3.136116
 C         -1.625804   -0.801295    1.054858
 C         -0.784463   -0.799788    2.180101
 C         -1.684317   -1.967897    0.275133
 C         -0.036212   -1.926906    2.513124
 H         -0.727010    0.087585    2.804240
 C         -0.930936   -3.090962    0.613636
 H         -2.306973   -1.987901   -0.614772
 C         -0.097491   -3.094615    1.739933
 H          0.603690   -1.899964    3.392109
 H         -0.987471   -3.977747   -0.013499
 C         -4.834145    3.963733   -0.269769
 C         -4.804083    5.106210    0.545385
 C         -5.655053    3.984911   -1.409166
 C         -5.567397    6.229070    0.228226
 H         -4.194529    5.107573    1.444624
 C         -6.414215    5.111305   -1.720301
 H         -5.689942    3.115634   -2.060161
 C         -6.382923    6.255292   -0.910607
 H         -5.533807    7.097168    0.882507
 H         -7.039672    5.102505   -2.610062
 C         17.443190   -4.438710    1.136492
 H         17.820644   -5.356719    1.606607
 H         18.016071   -4.287675    0.215478
 H         17.666286   -3.610319    1.816799
 C          3.147064   -5.608899   -1.541031
 H          2.585420   -4.756949   -1.142467
 H          2.938567   -5.682015   -2.613250
 H          2.744312   -6.514383   -1.067492
 C          0.690876   -4.324584    2.123227
 H          0.950798   -4.924132    1.244387
 H          1.617346   -4.060605    2.644156
 H          0.112857   -4.970852    2.797263
 C         -7.184740    7.484397   -1.268290
 H         -8.114097    7.220570   -1.784020
 H         -7.441775    8.067807   -0.378132
 H         -6.618014    8.144807   -1.938182
       158
S1: Total Energy = -8465.08089799
 C         10.531767   -8.575551   -0.284895
 C         11.460147   -7.584957   -0.244826
 C         10.884141   -6.265815   -0.282398
 C          9.458971   -6.312586   -0.347561
 S          8.888351   -7.985206   -0.368272
 H         12.525739   -7.768334   -0.181478
 C         11.557689   -5.020903   -0.221081
 C          8.648284   -5.174606   -0.337176
 C         10.750740   -3.884275   -0.208539
 C          9.322519   -3.928814   -0.265032
 C          8.749038   -2.622059   -0.303909
 C          9.669647   -1.598497   -0.274492
 S         11.330318   -2.216287   -0.188312
 H          7.682941   -2.446977   -0.387699
 C          9.427065   -0.186385   -0.312437
 C         10.331947    0.844915   -0.541569
 C          9.764311    2.125596   -0.535234
 C          8.388180    2.140772   -0.287188
 S          7.824456    0.470986   -0.047221
 H         11.384237    0.666356   -0.736218
 H         10.314791    3.034291   -0.714401
 C          7.418082    3.196797   -0.250517
 C          7.475153    4.603041   -0.113598
 C          6.185013    5.238891   -0.088856
 C          5.102043    4.333253   -0.224096
 S          5.734305    2.695085   -0.388497
 C          8.725008    5.388608    0.061615
 O          9.852698    4.894022   -0.028914
 C          6.028874    6.684310    0.182333
 O          4.926966    7.247249    0.232481
 C          9.605643    7.688890    0.595452
 C          8.560714    6.819204    0.358362
 C          7.267335    7.441316    0.416499
 C          7.317126    8.791034    0.698049
 S          8.977401    9.285240    0.895337
 C          3.685876    4.470760   -0.262547
 C          2.857206    5.547640   -0.629217
 C          1.500564    5.245768   -0.639609
 C          1.191976    3.925589   -0.274784
 S          2.676854    3.049336    0.090119
 H          3.266438    6.513207   -0.879236
 H          0.735937    5.967823   -0.906437
 C         11.082485    7.437028    0.622017
 H         11.430017    7.074242   -0.350920
 H         11.636513    8.345277    0.876388
 H         11.328238    6.658167    1.350904
 C          6.206764    9.787221    0.840545
 H          5.527176    9.496145    1.648121
 H          6.594464   10.788221    1.051743
 H          5.605232    9.827343   -0.073116
 H         10.707989   -9.643433   -0.269264
 C         -0.078194    3.313727   -0.166729
 C         -0.379102    2.016775    0.252644
 S         -1.553210    4.208476   -0.581011
 C         -1.753632    1.711539    0.269160
 H          0.389284    1.306744    0.534590
 C         -2.561848    2.811782   -0.182236
 C         -2.370460    0.469085    0.627603
 C         -3.936915    2.745373   -0.333224
 C         -3.746832    0.403059    0.472715
 C         -4.551184    1.499801    0.011856
 S         -4.761727   -0.986054    0.883778
 C         -5.928599    1.193185    0.020755
 C         -6.230609   -0.092878    0.453866
 H         -6.694190    1.904431   -0.265879
 C         -7.509771   -0.702315    0.572536
 C         -7.831725   -1.974143    1.052109
 S         -8.974981    0.131342    0.069025
 C         -9.197577   -2.271288    1.031026
 H         -7.081434   -2.666651    1.418964
 C         -9.998455   -1.238992    0.535523
 H         -9.621920   -3.204874    1.364631
 C        -11.425046   -1.105504    0.437721
 C        -12.491319   -2.018847    0.334584
 S        -12.061767    0.534799    0.443603
 C        -13.787075   -1.376730    0.253957
 C        -12.342899   -3.482552    0.192441
 C        -13.725577    0.017435    0.272769
 C        -15.039709   -2.156701    0.073763
 O        -11.257871   -4.069258    0.299606
 C        -13.574670   -4.230018   -0.113916
 C        -14.721501    1.068524    0.170554
 O        -16.161913   -1.646785    0.123095
 C        -14.865213   -3.595985   -0.174892
 C        -13.619778   -5.589033   -0.350922
 C        -16.017719    1.146393    0.644571
 S        -14.272263    2.602648   -0.589010
 C        -15.897753   -4.466166   -0.458899
 S        -15.264491   -6.074894   -0.659301
 C        -12.514270   -6.600923   -0.371062
 C        -16.634577    2.403786    0.409842
 H        -16.497331    0.319040    1.144221
 C        -15.819863    3.290710   -0.243815
 C        -17.366228   -4.201909   -0.598383
 H        -12.017457   -6.649048    0.603380
 H        -12.890716   -7.596809   -0.623049
 H        -11.746277   -6.320099   -1.098649
 H        -17.648408    2.638849    0.714838
 H        -17.547783   -3.409604   -1.331114
 H        -17.904951   -5.101633   -0.909629
 H        -17.787541   -3.851974    0.350119
 H        -16.041862    4.302183   -0.557418
 C         13.043649   -4.938038   -0.179457
 C         13.825108   -5.485050   -1.210037
 C         13.703783   -4.304239    0.885199
 C         15.215652   -5.398423   -1.174207
 H         13.337001   -5.965262   -2.053708
 C         15.095344   -4.222280    0.914897
 H         13.123841   -3.883519    1.701838
 C         15.877572   -4.768977   -0.110889
 H         15.796668   -5.821014   -1.990832
 H         15.581158   -3.727667    1.752906
 C          7.165141   -5.255344   -0.406097
 C          6.359732   -4.676828    0.589948
 C          6.528330   -5.906143   -1.474455
 C          4.970818   -4.749200    0.515589
 H          6.828242   -4.177045    1.433294
 C          5.137084   -5.972816   -1.542968
 H          7.125939   -6.342614   -2.269554
 C          4.332472   -5.398970   -0.551000
 H          4.371483   -4.294654    1.301340
 H          4.669705   -6.472465   -2.388249
 C         -1.572654   -0.667967    1.154662
 C         -0.760456   -0.508767    2.291289
 C         -1.619523   -1.933657    0.548527
 C         -0.034669   -1.580156    2.805152
 H         -0.713157    0.458181    2.784129
 C         -0.887617   -3.001120    1.067853
 H         -2.216526   -2.078485   -0.347306
 C         -0.088349   -2.848130    2.207989
 H          0.579521   -1.430994    3.690262
 H         -0.936935   -3.969021    0.574504
 C         -4.742385    3.894081   -0.825797
 C         -4.719648    5.130826   -0.161493
 C         -5.546560    3.772401   -1.971496
 C         -5.472705    6.206230   -0.630801
 H         -4.125845    5.244482    0.741026
 C         -6.294332    4.852371   -2.435348
 H         -5.575085    2.828157   -2.508177
 C         -6.269788    6.090125   -1.776962
 H         -5.445808    7.149913   -0.090959
 H         -6.905639    4.732597   -3.326868
 C         17.385941   -4.704177   -0.060723
 H         17.803094   -5.580515    0.453314
 H         17.819413   -4.681374   -1.066043
 H         17.731024   -3.816646    0.479803
 C          2.826141   -5.489954   -0.615170
 H          2.355049   -4.541439   -0.333709
 H          2.483859   -5.753754   -1.620753
 H          2.446654   -6.257130    0.073037
 C          0.671284   -4.014202    2.794432
 H          0.849299   -4.793852    2.046954
 H          1.639653   -3.699467    3.198632
 H          0.111911   -4.474255    3.619879
 C         -7.059774    7.265647   -2.301351
 H         -7.994206    6.942384   -2.772156
 H         -7.306281    7.971338   -1.501482
 H         -6.488898    7.818150   -3.059562
