       146
S0: Total Energy = -6171.51055326
 C        -16.294631   -0.080856   -0.163117
 C        -16.954172   -1.288894   -0.312624
 S        -17.450499    1.215954    0.038722
 C        -18.356791   -1.187054   -0.272286
 H        -16.434165   -2.225850   -0.476687
 C        -18.817926    0.112834   -0.089685
 H        -19.037360   -2.025281   -0.382230
 C        -20.203331    0.486339   -0.017803
 C        -21.310721   -0.361459   -0.114212
 N        -20.700609    1.775591    0.162981
 C        -21.678907   -1.745184   -0.295243
 C        -22.501109    0.406075    0.006835
 C        -22.133239    1.790593    0.186507
 C        -19.965681    3.018971    0.323520
 N        -23.112249   -1.729321   -0.272223
 O        -21.030663   -2.782170   -0.444300
 C        -23.608006   -0.440784   -0.090698
 O        -22.782288    2.826903    0.334555
 H        -20.715999    3.801743    0.445975
 H        -19.358518    3.242779   -0.558911
 H        -19.327860    2.995424    1.212361
 C        -23.847630   -2.972420   -0.432845
 C        -24.997098   -0.067801   -0.017854
 H        -23.097772   -3.755750   -0.554167
 H        -24.455991   -3.195055    0.449053
 H        -24.484732   -2.948613   -1.322189
 C        -25.458617    1.229333    0.166396
 S        -26.364389   -1.175792   -0.145499
 H        -24.779064    2.069145    0.269535
 C        -26.870339    1.326963    0.203416
 C        -27.494756    0.115314    0.049158
 H        -27.404994    2.260336    0.339434
 H        -28.555554   -0.097908    0.037952
 C        -14.854303    0.173976   -0.150273
 C        -13.961809   -0.846449    0.159986
 C        -14.328405    1.466720   -0.457518
 C        -12.564858   -0.632254    0.165675
 H        -14.334142   -1.831327    0.427002
 C        -12.976869    1.704030   -0.452445
 H        -15.009818    2.270557   -0.720936
 C        -11.638485   -1.666449    0.477321
 C        -12.050504    0.669328   -0.142242
 H        -12.597852    2.693351   -0.695375
 C        -10.287089   -1.428951    0.482760
 H        -12.017422   -2.655627    0.720942
 C        -10.653511    0.883265   -0.137563
 C         -9.760621   -0.136834    0.173254
 H         -9.606271   -2.232979    0.747101
 H        -10.281939    1.868170   -0.405323
 C         -8.320198    0.116506    0.183411
 S         -7.165980   -1.187051    0.016770
 C         -7.658112    1.326693    0.304471
 C         -5.796611   -0.083848    0.121199
 C         -6.255902    1.221374    0.269483
 H         -8.175850    2.268938    0.443366
 C         -4.412606   -0.461973    0.060321
 H         -5.573986    2.061096    0.357325
 C         -3.302762    0.387114    0.122367
 N         -3.917438   -1.757722   -0.073385
 C         -2.114955   -0.385705    0.025914
 C         -2.932405    1.777385    0.244331
 C         -2.485366   -1.775576   -0.100096
 C         -4.654237   -3.005903   -0.178842
 C         -1.005274    0.464195    0.079537
 N         -1.500449    1.760139    0.210891
 O         -3.580080    2.819231    0.357663
 O         -1.837616   -2.817862   -0.209016
 H         -3.905078   -3.794639   -0.264324
 H         -5.263530   -3.188044    0.711560
 H         -5.290356   -3.021901   -1.069078
 C          0.378666    0.086682    0.012394
 C         -0.763378    3.007680    0.322011
 S          1.747363    1.194784    0.064759
 C          0.838187   -1.221417   -0.106915
 H         -1.512028    3.794916    0.424156
 H         -0.164130    3.200693   -0.572974
 H         -0.117424    3.013680    1.205189
 C          2.900971   -0.111351   -0.082299
 C          2.240104   -1.325596   -0.158700
 H          0.156487   -2.063873   -0.165640
 C          4.341116    0.143331   -0.101340
 H          2.758865   -2.269892   -0.278885
 C          5.237257   -0.856159    0.262137
 C          4.862980    1.414199   -0.494664
 C          6.634053   -0.642298    0.239471
 H          4.867876   -1.822168    0.594333
 C          6.214437    1.650565   -0.520211
 H          4.178216    2.200079   -0.800219
 C          7.564400   -1.654324    0.606992
 C          7.144542    0.636948   -0.156034
 H          6.590550    2.622381   -0.829321
 C          8.915569   -1.416809    0.583498
 H          7.188744   -2.625975    0.917162
 C          8.541303    0.850379   -0.180408
 C          9.438479   -0.147494    0.185785
 H          9.599088   -2.202807    0.891508
 H          8.908816    1.816422   -0.514178
 C         10.878714    0.105678    0.163836
 S         12.033008   -1.207451    0.103522
 C         11.541351    1.321614    0.174559
 C         13.402361   -0.099427    0.101390
 C         12.943322    1.213648    0.138158
 H         11.024737    2.272791    0.233989
 C         14.786167   -0.481673    0.061183
 H         13.625293    2.057874    0.145124
 C         15.895594    0.369053    0.028010
 N         15.281080   -1.784342    0.045171
 C         17.083072   -0.409756   -0.010395
 C         16.266056    1.764525    0.013009
 C         16.712819   -1.804964    0.000260
 C         14.544242   -3.036356    0.077888
 C         18.192514    0.441426   -0.051227
 N         17.697433    1.743961   -0.038116
 O         15.618768    2.812541    0.036629
 O         17.359936   -2.853342   -0.020189
 H         15.293103   -3.829977    0.069432
 H         13.942937   -3.123017    0.987963
 H         13.900127   -3.146185   -0.799977
 C         19.576170    0.059986   -0.095608
 C         18.434371    2.996079   -0.068071
 S         20.945159    1.168545   -0.145703
 C         20.036096   -1.253151   -0.103726
 H         17.686066    3.789909   -0.045204
 H         19.025916    3.090560   -0.983776
 H         19.088005    3.097592    0.803619
 C         22.098384   -0.144986   -0.187296
 C         21.438180   -1.361095   -0.155442
 H         19.354779   -2.097753   -0.083444
 C         23.539515    0.109042   -0.235798
 H         21.957335   -2.311907   -0.197260
 C         24.436873   -0.849516    0.217663
 C         24.056857    1.337887   -0.748761
 C         25.836782   -0.639536    0.171343
 H         24.068811   -1.779851    0.641134
 C         25.408735    1.571253   -0.798933
 H         23.369777    2.090249   -1.125516
 C         26.761141   -1.617748    0.632901
 C         26.341233    0.598273   -0.346572
 H         25.782990    2.510398   -1.198794
 C         28.116911   -1.384367    0.579548
 H         26.377851   -2.555332    1.028126
 C         27.744424    0.807503   -0.388423
 C         28.613900   -0.161197    0.063691
 H         28.813285   -2.139382    0.933670
 H         28.122723    1.747136   -0.783752
 H         29.686201    0.009637    0.027511
       146
T1: Total Energy = -6171.47690623
 C         16.310049   -0.077183    0.217529
 C         16.976935   -1.278219    0.400142
 S         17.460269    1.211580   -0.062424
 C         18.376903   -1.176867    0.324007
 H         16.464090   -2.209327    0.612443
 C         18.832413    0.115598    0.079261
 H         19.061207   -2.009634    0.451036
 C         20.214182    0.486307   -0.038661
 C         21.325269   -0.357256    0.062186
 N         20.706100    1.768408   -0.277834
 C         21.699343   -1.733329    0.283962
 C         22.511162    0.405777   -0.114896
 C         22.137313    1.782915   -0.335806
 C         19.966087    3.005291   -0.462945
 N         23.131627   -1.717849    0.225545
 O         21.056184   -2.764636    0.486470
 C         23.621470   -0.436542   -0.013782
 O         22.781750    2.813290   -0.536591
 H         20.712168    3.783446   -0.631882
 H         19.381284    3.259622    0.426328
 H         19.305793    2.950433   -1.333782
 C         23.872244   -2.954141    0.411931
 C         25.007878   -0.065823   -0.132756
 H         23.126693   -3.732579    0.581655
 H         24.457342   -3.208834   -0.477065
 H         24.532721   -2.897632    1.282520
 C         25.463599    1.224089   -0.373723
 S         26.379136   -1.168214    0.002017
 H         24.780823    2.059472   -0.490578
 C         26.873972    1.320731   -0.447198
 C         27.503299    0.115572   -0.264709
 H         27.404223    2.248881   -0.628693
 H         28.564306   -0.096783   -0.270745
 C         14.871732    0.175945    0.229095
 C         13.969040   -0.867434    0.036765
 C         14.351345    1.490661    0.438534
 C         12.574950   -0.653416    0.055377
 H         14.333193   -1.872748   -0.154241
 C         13.000268    1.727584    0.455355
 H         15.037686    2.315307    0.608344
 C         11.638676   -1.709190   -0.139608
 C         12.065089    0.669936    0.267663
 H         12.627356    2.734812    0.622563
 C         10.289204   -1.473051   -0.120465
 H         12.011108   -2.717057   -0.304137
 C         10.671617    0.885326    0.283550
 C          9.762225   -0.158050    0.094293
 H          9.607275   -2.304921   -0.271336
 H         10.315411    1.897511    0.448252
 C          8.332127    0.086157    0.114065
 S          7.173560   -1.216188   -0.129596
 C          7.652843    1.289788    0.311592
 C          5.792644   -0.119280    0.038363
 C          6.264745    1.189634    0.272528
 H          8.163202    2.230516    0.482672
 C          4.439083   -0.486859   -0.046188
 H          5.583589    2.022989    0.406657
 C          3.289737    0.374748    0.086458
 N          3.915300   -1.757432   -0.274149
 C          2.130492   -0.366789   -0.058407
 C          2.922236    1.765513    0.322032
 C          2.498030   -1.757585   -0.293884
 C          4.640430   -3.001334   -0.481711
 C          0.981161    0.494790    0.074204
 N          1.504995    1.765358    0.302280
 O          3.592881    2.783236    0.507477
 O          1.827435   -2.775342   -0.479149
 H          3.887448   -3.776046   -0.631841
 H          5.277487   -2.944230   -1.369006
 H          5.247498   -3.256227    0.391807
 C         -0.372363    0.127287   -0.010718
 C          0.779855    3.009214    0.510080
 S         -1.753273    1.224365    0.156203
 C         -0.844496   -1.181663   -0.244848
 H          1.532831    3.783854    0.660622
 H          0.142593    2.951826    1.397207
 H          0.172986    3.264427   -0.363485
 C         -2.911877   -0.078011   -0.087312
 C         -2.232535   -1.281741   -0.284467
 H         -0.163368   -2.015184   -0.378033
 C         -4.341864    0.166288   -0.068259
 H         -2.742902   -2.222715   -0.454185
 C         -5.250935   -0.873927   -0.275986
 C         -4.869285    1.478090    0.164354
 C         -6.644332   -0.658502   -0.261121
 H         -4.894357   -1.883330   -0.456237
 C         -6.218755    1.714235    0.182677
 H         -4.187695    2.307228    0.330993
 C         -7.579144   -1.712933   -0.467924
 C         -7.154695    0.661704   -0.030924
 H         -6.591485    2.719591    0.361282
 C         -8.930168   -1.475876   -0.452367
 H         -7.205916   -2.717676   -0.648828
 C         -8.548715    0.875797   -0.013889
 C         -9.451180   -0.164283   -0.225137
 H         -9.616031   -2.297753   -0.636866
 H         -8.913246    1.878274    0.190785
 C        -10.889271    0.088866   -0.215431
 S        -12.041268   -1.204904    0.033873
 C        -11.555418    1.293273   -0.378308
 C        -13.412755   -0.106189   -0.093858
 C        -12.955636    1.190799   -0.311441
 H        -11.041553    2.228317   -0.569933
 C        -14.794678   -0.479428    0.008732
 H        -13.639271    2.025861   -0.426317
 C        -15.906280    0.365222   -0.084758
 N        -15.288066   -1.765616    0.221768
 C        -17.092117   -0.400913    0.069815
 C        -16.279369    1.745503   -0.285223
 C        -16.719368   -1.781342    0.269489
 C        -14.549134   -3.005213    0.392249
 C        -18.203763    0.443479   -0.025491
 N        -17.710859    1.729440   -0.238443
 O        -15.633834    2.779737   -0.464015
 O        -17.365105   -2.815422    0.448573
 H        -15.296276   -3.785951    0.543695
 H        -13.958200   -3.245453   -0.496897
 H        -13.894775   -2.964177    1.268330
 C        -19.586625    0.070075    0.073998
 C        -18.449995    2.968942   -0.409192
 S        -20.958250    1.168329   -0.061209
 C        -20.043944   -1.225808    0.292371
 H        -17.702968    3.750328   -0.557707
 H        -19.043398    3.207387    0.478750
 H        -19.102127    2.928657   -1.286953
 C        -22.109071   -0.124607    0.186645
 C        -21.445979   -1.327884    0.354797
 H        -19.360761   -2.060673    0.411423
 C        -23.550923    0.129584    0.186327
 H        -21.963214   -2.260937    0.547551
 C        -24.444091   -0.892911   -0.108001
 C        -24.073522    1.424469    0.488144
 C        -25.844646   -0.682178   -0.103351
 H        -24.072106   -1.879043   -0.371699
 C        -25.426093    1.659124    0.492716
 H        -23.389940    2.230472    0.739482
 C        -26.764652   -1.725520   -0.402404
 C        -26.354307    0.622486    0.201669
 H        -25.804224    2.650201    0.730916
 C        -28.121151   -1.490361   -0.394908
 H        -26.377505   -2.714315   -0.636031
 C        -27.758117    0.831777    0.201573
 C        -28.623284   -0.200436   -0.089673
 H        -28.814080   -2.295308   -0.623593
 H        -28.140465    1.822479    0.435304
 H        -29.696089   -0.028938   -0.087422
       146
S1: Total Energy = -6171.45212437
 C         16.291206   -0.066275    0.071680
 C         16.958805   -1.279326    0.218206
 S         17.456526    1.232885   -0.109655
 C         18.354271   -1.178808    0.190477
 H         16.443648   -2.222218    0.359656
 C         18.823506    0.126315    0.019887
 H         19.033285   -2.018963    0.295497
 C         20.202333    0.493554   -0.039283
 C         21.311972   -0.361334    0.056424
 N         20.710472    1.782772   -0.203920
 C         21.674214   -1.748251    0.225179
 C         22.502210    0.401575   -0.048676
 C         22.140161    1.790881   -0.216957
 C         19.982292    3.031212   -0.355248
 N         23.107125   -1.737738    0.211635
 O         21.020928   -2.785311    0.359276
 C         23.610035   -0.450175    0.046922
 O         22.797215    2.824717   -0.349356
 H         20.736614    3.812437   -0.461871
 H         19.368426    3.246316    0.524675
 H         19.351612    3.021059   -1.249431
 C         23.836373   -2.985223    0.364626
 C         24.998105   -0.080430   -0.013382
 H         23.082665   -3.766789    0.472789
 H         24.450197   -3.201088   -0.515202
 H         24.467666   -2.972809    1.258382
 C         25.466639    1.217963   -0.180096
 S         26.362047   -1.194984    0.109763
 H         24.790570    2.061194   -0.277740
 C         26.878301    1.310323   -0.207443
 C         27.498438    0.094797   -0.063392
 H         27.417083    2.243328   -0.329527
 H         28.558429   -0.122032   -0.048324
 C         14.862693    0.187330    0.055627
 C         13.947898   -0.870971    0.020634
 C         14.341131    1.521118    0.075622
 C         12.560025   -0.652052    0.010914
 H         14.303355   -1.896373   -0.012685
 C         12.992960    1.762447    0.064737
 H         15.027083    2.362572    0.112636
 C         11.617922   -1.723254   -0.025188
 C         12.050502    0.691500    0.033466
 H         12.623820    2.784667    0.085105
 C         10.270518   -1.483379   -0.033198
 H         11.987802   -2.745239   -0.045025
 C         10.663246    0.910785    0.024700
 C          9.745486   -0.148735   -0.007017
 H          9.585998   -2.326350   -0.059654
 H         10.309634    1.937004    0.043921
 C          8.322669    0.100167   -0.012117
 S          7.157017   -1.215103   -0.046478
 C          7.647899    1.324451    0.009728
 C          5.784810   -0.100638   -0.029704
 C          6.259018    1.222482    0.000151
 H          8.161815    2.278252    0.032695
 C          4.418630   -0.471203   -0.041515
 H          5.579121    2.068245    0.014664
 C          3.294370    0.393799   -0.025434
 N          3.902261   -1.766304   -0.069364
 C          2.115661   -0.367471   -0.042269
 C          2.933993    1.797666    0.004219
 C          2.476420   -1.770953   -0.070788
 C          4.626901   -3.026035   -0.094921
 C          0.991199    0.498159   -0.023443
 N          1.509003    1.793686    0.004338
 O          3.598029    2.835861    0.025625
 O          1.813529   -2.809983   -0.092846
 H          3.871469   -3.812957   -0.115846
 H          5.252713   -3.108141   -0.988643
 H          5.245458   -3.148739    0.799268
 C         -0.373435    0.128261   -0.030387
 C          0.784746    3.053600    0.029604
 S         -1.746425    1.242049   -0.001087
 C         -0.847491   -1.196948   -0.061394
 H          1.540449    3.840393    0.045802
 H          0.162386    3.138313    0.925521
 H          0.162845    3.174277   -0.862533
 C         -2.912382   -0.075656   -0.030608
 C         -2.233981   -1.300755   -0.061482
 H         -0.166311   -2.041532   -0.082448
 C         -4.330977    0.168604   -0.021304
 H         -2.746773   -2.255147   -0.083339
 C         -5.249062   -0.895572   -0.046459
 C         -4.861230    1.502242    0.014520
 C         -6.633522   -0.680845   -0.036653
 H         -4.891934   -1.920290   -0.074182
 C         -6.208379    1.737474    0.024597
 H         -4.178974    2.347174    0.034448
 C         -7.574715   -1.755720   -0.061150
 C         -7.148862    0.662278   -0.000205
 H         -6.581639    2.758028    0.052100
 C         -8.922200   -1.519777   -0.049691
 H         -7.201993   -2.776402   -0.089360
 C         -8.533759    0.876686    0.010643
 C         -9.450040   -0.186695   -0.012916
 H         -9.604709   -2.364569   -0.069790
 H         -8.890761    1.901456    0.039739
 C        -10.871923    0.060875    0.000514
 S        -12.036077   -1.254873   -0.010386
 C        -11.546882    1.285229    0.024128
 C        -13.406689   -0.142400    0.017025
 C        -12.936262    1.179611    0.033145
 H        -11.034490    2.239844    0.033630
 C        -14.777076   -0.513671    0.023927
 H        -13.616819    2.024765    0.050948
 C        -15.894725    0.349679    0.047038
 N        -15.289115   -1.810681    0.010536
 C        -17.077854   -0.415596    0.048279
 C        -16.256682    1.750142    0.070203
 C        -16.716497   -1.817896    0.025802
 C        -14.562079   -3.069315   -0.014814
 C        -18.194465    0.445250    0.071765
 N        -17.687352    1.740712    0.084846
 O        -15.600061    2.792375    0.077905
 O        -17.377285   -2.856969    0.019781
 H        -15.316311   -3.857649   -0.021137
 H        -13.947343   -3.156886   -0.915620
 H        -13.933027   -3.184926    0.872902
 C        -19.571090    0.070489    0.079242
 C        -18.415384    2.998666    0.110767
 S        -20.938876    1.185291    0.096815
 C        -20.040330   -1.245485    0.070383
 H        -17.661624    3.787438    0.117309
 H        -19.030266    3.085209    1.011583
 H        -19.044584    3.114030   -0.776931
 C        -22.098934   -0.124937    0.101900
 C        -21.438565   -1.346279    0.083606
 H        -19.362489   -2.092951    0.064196
 C        -23.535801    0.132169    0.114894
 H        -21.960591   -2.295980    0.106246
 C        -24.432902   -0.858510   -0.272352
 C        -24.058512    1.399067    0.522422
 C        -25.831334   -0.642651   -0.261625
 H        -24.064832   -1.821379   -0.614797
 C        -25.409570    1.637366    0.536859
 H        -23.376217    2.179871    0.846192
 C        -26.752478   -1.653363   -0.656041
 C        -26.339594    0.633300    0.150279
 H        -25.786263    2.605893    0.856080
 C        -28.108140   -1.414183   -0.638849
 H        -26.366640   -2.620006   -0.970384
 C        -27.741752    0.847463    0.157023
 C        -28.608203   -0.153118   -0.228346
 H        -28.801986   -2.193720   -0.940812
 H        -28.123016    1.815957    0.471460
 H        -29.680341    0.021989   -0.219765
