       158
S0: Total Energy = -7951.86301990
 C         14.311204    3.176192    0.011361
 C         12.944445    2.883541   -0.032498
 C         12.585943    1.521877    0.093705
 C         13.595697    0.528532    0.268207
 C         14.960272    0.820774    0.311171
 C         15.319745    2.182297    0.185328
 C         16.637431    2.764733    0.254190
 H         17.540523    2.183822    0.395636
 C         16.630684    4.115933    0.134974
 S         15.027825    4.788121   -0.067246
 C         11.254674   -0.419943    0.143384
 S         12.885883   -1.084092    0.351829
 C         11.275203    0.943750    0.022766
 H         10.379146    1.534352   -0.126898
 H         17.482538    4.783399    0.153008
 C         10.115696   -1.309779    0.117932
 C         10.102899   -2.690959    0.199105
 S          8.485517   -0.690102   -0.006546
 C          8.810038   -3.249514    0.130565
 H         11.002154   -3.288760    0.301889
 C          7.798419   -2.314441    0.003516
 H          8.620206   -4.311800    0.165500
 C          6.358787   -2.531546   -0.084446
 C          5.715766   -3.642154   -0.636096
 C          5.429423   -1.568691    0.431741
 C          4.290491   -3.831196   -0.640844
 C          4.018217   -1.756057    0.426720
 C          3.376454   -2.927482   -0.095060
 N          5.690712   -0.380862    1.016066
 N          3.451462   -0.678496    1.008509
 N          4.488623    0.082414    1.322740
 C          4.311613    1.398350    1.923859
 H          3.410944    1.373867    2.536182
 H          5.189093    1.614282    2.532159
 H          4.207899    2.151659    1.138101
 C          1.928970   -3.093013   -0.017736
 C          1.196014   -4.257061    0.127743
 S          0.842644   -1.705427   -0.067665
 C         -0.198429   -4.054367    0.178590
 H          1.656370   -5.231925    0.189001
 C         -0.570733   -2.726463    0.063999
 H         -0.911730   -4.863879    0.290062
 C          6.311009   -4.764305   -1.427879
 C          4.008643   -5.069277   -1.434089
 N          5.246118   -5.547689   -1.863659
 O          2.948520   -5.604254   -1.712403
 O          7.472196   -5.013897   -1.707055
 C          5.418908   -6.731381   -2.687612
 H          5.820140   -6.460119   -3.668450
 H          6.109905   -7.426421   -2.203597
 H          4.440123   -7.196319   -2.805856
 C         -1.902083   -2.164843    0.061890
 C         -2.278902   -0.862193   -0.133828
 S         -3.302455   -3.216899    0.337910
 C         -3.693289   -0.642987   -0.071362
 H         -1.568804   -0.068931   -0.335310
 C         -4.408833   -1.853005    0.175914
 C         -4.395605    0.570183   -0.268080
 C         -5.801959   -1.924689    0.225410
 C         -5.788743    0.498377   -0.219306
 C         -6.504315   -0.711771    0.027590
 S         -6.895496    1.861580   -0.384678
 C         -7.918963   -0.493130    0.087062
 C         -8.295989    0.809027   -0.111239
 H         -8.629209   -1.286363    0.288071
 C         -9.627972    1.369329   -0.121595
 C        -10.000721    2.697899   -0.223588
 S        -11.041341    0.344345   -0.025958
 C        -11.396326    2.897715   -0.192087
 H         -9.287262    3.510138   -0.312088
 C        -12.129784    1.730826   -0.074165
 H        -11.857522    3.872504   -0.244797
 C        -13.578582    1.560743   -0.021334
 C        -14.505705    2.463370    0.503044
 C        -14.206153    0.384027   -0.549800
 C        -15.930120    2.262824    0.478818
 C        -14.251648    3.712735    1.287044
 C        -15.616225    0.188137   -0.574594
 N        -13.625206   -0.690711   -1.122716
 C        -16.556733    1.145315   -0.071422
 C        -16.552040    3.387653    1.246269
 N        -15.496779    4.183917    1.693157
 O        -13.206817    4.271003    1.579938
 N        -15.863177   -1.001272   -1.163389
 N        -14.654164   -1.457065   -1.452156
 C        -17.996708    0.914926   -0.169867
 O        -17.722485    3.623138    1.493694
 C        -15.665815    5.379947    2.499670
 C        -14.460351   -2.771293   -2.051639
 C        -19.005760    1.832745   -0.383539
 S        -18.681451   -0.705294   -0.048807
 H        -15.199644    5.248275    3.480319
 H        -15.204702    6.237386    2.002208
 H        -16.736293    5.547436    2.619164
 H        -15.334178   -2.997529   -2.661375
 H        -13.558756   -2.737500   -2.662272
 H        -14.349480   -3.522699   -1.265020
 C        -20.302028    1.257313   -0.436742
 H        -18.816587    2.890758   -0.494544
 C        -20.285774   -0.101051   -0.254111
 H        -21.207864    1.830061   -0.601618
 H        -21.123987   -0.785412   -0.239965
 C         -6.516695   -3.207874    0.467491
 C         -7.433518   -3.700535   -0.472177
 C         -6.279615   -3.947651    1.636730
 C         -8.082217   -4.904029   -0.223976
 H         -7.635361   -3.170059   -1.395955
 C         -6.957856   -5.142886    1.827151
 H         -5.594050   -3.597803    2.400197
 C         -7.878806   -5.674206    0.922054
 C         -3.680577    1.853336   -0.509432
 C         -3.917620    2.594235   -1.677964
 C         -2.763310    2.344799    0.430450
 C         -3.239051    3.789443   -1.867399
 H         -4.603454    2.245360   -2.441627
 C         -2.114294    3.548326    0.183248
 H         -2.561483    1.813417    1.353713
 C         -2.317753    4.319647   -0.962002
 C         15.987770   -0.244705    0.473914
 C         16.978830   -0.431894   -0.500011
 C         15.976929   -1.081834    1.600602
 C         17.921923   -1.437708   -0.327266
 H         17.015287    0.181668   -1.393173
 C         16.945177   -2.068829    1.716242
 H         15.241373   -0.963448    2.388169
 C         17.951078   -2.294109    0.774458
 C         11.916609    3.947389   -0.197856
 C         10.914829    4.126170    0.767035
 C         11.937138    4.792503   -1.318598
 C          9.971274    5.130911    0.590990
 H         10.870490    3.507096    1.656036
 C         10.967880    5.777848   -1.437804
 H         12.680960    4.680969   -2.099265
 C          9.951642    5.994667   -0.505046
 F         -8.956780   -5.355339   -1.152627
 F         -6.726845   -5.841725    2.961533
 F         -3.470036    4.489389   -3.001094
 F         -1.239326    3.998456    1.112084
 F         18.861622   -1.596649   -1.287603
 F         16.928786   -2.863185    2.810756
 F         10.993681    6.579612   -2.526599
 F          9.021204    5.281539    1.542890
 C         -8.585900   -6.977172    1.183009
 H         -7.867482   -7.796415    1.298075
 H         -9.169685   -6.927500    2.108968
 H         -9.260334   -7.221547    0.361014
 C         -1.610500    5.622755   -1.221806
 H         -1.028792    5.574680   -2.149146
 H         -2.328720    6.442638   -1.333612
 H         -0.934217    5.865106   -0.400731
 C          8.925846    7.081014   -0.687838
 H          9.402931    8.066283   -0.736187
 H          8.372800    6.944171   -1.623762
 H          8.213726    7.082246    0.138706
 C         18.976123   -3.381877    0.953202
 H         19.686918   -3.381888    0.125543
 H         19.530548   -3.247786    1.888619
 H         18.498185   -4.366899    0.999688
       158
T1: Total Energy = -7951.81358344
 C        -13.982444    3.281395   -0.627729
 C        -12.670312    2.949017   -0.280177
 C        -12.308018    1.585474   -0.410415
 C        -13.261023    0.633234   -0.890152
 C        -14.569436    0.966778   -1.236030
 C        -14.932023    2.329204   -1.105647
 C        -16.185872    2.950545   -1.446809
 H        -17.035556    2.405694   -1.839416
 C        -16.191806    4.291862   -1.237015
 S        -14.677790    4.904725   -0.612654
 C        -11.028692   -0.392146   -0.275862
 S        -12.574838   -0.992360   -0.913719
 C        -11.065545    0.971853   -0.068793
 H        -10.224274    1.524323    0.332044
 H        -17.006726    4.982230   -1.412452
 C         -9.947358   -1.293510   -0.040637
 C         -9.912530   -2.676084   -0.251438
 S         -8.401121   -0.726566    0.576280
 C         -8.702040   -3.269073    0.083148
 H        -10.755058   -3.232423   -0.648512
 C         -7.725807   -2.372747    0.574502
 H         -8.510576   -4.325742   -0.014020
 C         -6.381009   -2.627393    0.952170
 C         -5.763301   -3.908186    1.162245
 C         -5.426383   -1.555277    1.135267
 C         -4.380792   -4.111631    1.282253
 C         -4.024166   -1.758200    1.252784
 C         -3.394307   -3.060233    1.196295
 N         -5.663765   -0.236495    1.179612
 N         -3.435636   -0.559275    1.366135
 N         -4.452313    0.302783    1.313531
 C         -4.261657    1.728931    1.511256
 H         -3.290660    2.004715    1.099467
 H         -5.060143    2.255043    0.988090
 H         -4.293727    1.974129    2.577655
 C         -2.001161   -3.205563    1.022394
 C         -1.252956   -4.367312    0.682745
 S         -0.895543   -1.811370    1.110489
 C          0.101085   -4.150993    0.517710
 H         -1.720988   -5.332112    0.570404
 C          0.501165   -2.817043    0.718404
 H          0.798557   -4.936625    0.246538
 C         -6.435905   -5.217838    1.461690
 C         -4.166240   -5.541583    1.670302
 N         -5.426527   -6.134914    1.719201
 O         -3.136667   -6.138448    1.943582
 O         -7.620734   -5.504177    1.528196
 C         -5.672571   -7.511659    2.109968
 H         -6.239622   -7.550737    3.044654
 H         -6.238088   -8.030177    1.331087
 H         -4.703492   -7.991679    2.247259
 C          1.803771   -2.269540    0.626025
 C          2.196410   -0.950598    0.815041
 S          3.195550   -3.301032    0.223262
 C          3.586473   -0.721210    0.641784
 H          1.496105   -0.169279    1.084388
 C          4.295505   -1.923124    0.315792
 C          4.294842    0.501527    0.797906
 C          5.675444   -1.977114    0.151090
 C          5.677065    0.444691    0.632656
 C          6.382377   -0.754789    0.306372
 S          6.780701    1.818350    0.719160
 C          7.779050   -0.522320    0.132016
 C          8.162593    0.784561    0.317390
 H          8.478796   -1.306711   -0.130806
 C          9.483160    1.353754    0.220473
 C          9.875569    2.661705    0.454827
 S         10.863122    0.372635   -0.220300
 C         11.252569    2.882351    0.258703
 H          9.188112    3.441745    0.763881
 C         11.956307    1.752909   -0.124675
 H         11.723255    3.845332    0.387231
 C         13.381482    1.613061   -0.401914
 C         14.235531    2.600052   -0.899921
 C         14.066702    0.376540   -0.157163
 C         15.648626    2.419254   -1.098351
 C         13.885618    3.950687   -1.441540
 C         15.465651    0.199832   -0.354373
 N         13.561108   -0.783943    0.309692
 C         16.336489    1.238122   -0.820992
 C         16.169364    3.660417   -1.753880
 N         15.068468    4.500081   -1.927151
 O         12.812848    4.528780   -1.508065
 N         15.781527   -1.064241   -0.001495
 N         14.619754   -1.577977    0.371125
 C         17.774512    1.015155   -0.955659
 O         17.298027    3.950871   -2.112023
 C         15.135436    5.809302   -2.552480
 C         14.499774   -2.973397    0.774091
 C         18.810856    1.901718   -0.739486
 S         18.423539   -0.556926   -1.421166
 H         14.576115    5.814394   -3.492605
 H         14.711477    6.564497   -1.885620
 H         16.185426    6.027513   -2.747681
 H         15.443405   -3.278263    1.224897
 H         13.683573   -3.051373    1.491427
 H         14.287116   -3.593187   -0.101301
 C         20.097503    1.342596   -0.953721
 H         18.647192    2.926606   -0.439094
 C         20.045522    0.029454   -1.343330
 H         21.021926    1.894623   -0.825452
 H         20.868485   -0.632864   -1.578327
 C          6.383807   -3.247303   -0.167153
 C          7.374026   -3.744330    0.692279
 C          6.067075   -3.969663   -1.328213
 C          8.014382   -4.936035    0.375123
 H          7.639778   -3.226848    1.607245
 C          6.741207   -5.153813   -1.589794
 H          5.322139   -3.615101   -2.031503
 C          7.733056   -5.689296   -0.765725
 C          3.589120    1.772068    1.115545
 C          3.921932    2.505129    2.265722
 C          2.585926    2.261232    0.266258
 C          3.250504    3.690783    2.526820
 H          4.676014    2.156775    2.962273
 C          1.949710    3.455400    0.582060
 H          2.307706    1.736386   -0.640706
 C          2.246756    4.218665    1.712338
 C        -15.542361   -0.055103   -1.712399
 C        -16.737514   -0.278975   -1.014456
 C        -15.275557   -0.813651   -2.862849
 C        -17.625107   -1.243217   -1.476405
 H        -16.976692    0.273439   -0.112687
 C        -16.200954   -1.762222   -3.273989
 H        -14.373310   -0.663428   -3.444859
 C        -17.403368   -2.021800   -2.613401
 C        -11.699001    3.969642    0.197788
 C        -10.488915    4.174986   -0.480812
 C        -11.981574    4.748198    1.331415
 C         -9.603501    5.140112   -0.016838
 H        -10.236748    3.608467   -1.370174
 C        -11.057205    5.696052    1.745633
 H        -12.894831    4.612512    1.899449
 C         -9.840859    5.937510    1.103789
 F          8.961240   -5.392404    1.227060
 F          6.432746   -5.836208   -2.715568
 F          3.574237    4.382679    3.642460
 F          0.991227    3.904309   -0.260336
 F        -18.766791   -1.439622   -0.777677
 F        -15.936109   -2.480564   -4.388713
 F        -11.337351    6.432781    2.844372
 F         -8.447801    5.318680   -0.697255
 C          8.431167   -6.979953   -1.101195
 H          7.716531   -7.808756   -1.156825
 H          8.926643   -6.915217   -2.076259
 H          9.180939   -7.220667   -0.346116
 C          1.552639    5.511756    2.046429
 H          1.073373    5.456014    3.030108
 H          2.267054    6.341874    2.082181
 H          0.790371    5.744183    1.301346
 C         -8.875964    6.980941    1.599660
 H         -9.340281    7.973390    1.603471
 H         -8.562458    6.767611    2.627706
 H         -7.987968    7.017107    0.966877
 C        -18.370204   -3.064889   -3.106431
 H        -19.251960   -3.107342   -2.465394
 H        -18.694044   -2.846241   -4.130048
 H        -17.903379   -4.056147   -3.120449
       158
S1: Total Energy = -7951.79472714
 C        -14.163304    3.221785   -0.412956
 C        -12.820068    2.915221   -0.180152
 C        -12.453387    1.550197   -0.296407
 C        -13.435755    0.572691   -0.651914
 C        -14.774592    0.881019   -0.883957
 C        -15.141441    2.244207   -0.766496
 C        -16.428737    2.840519   -1.010654
 H        -17.304071    2.273836   -1.303351
 C        -16.432982    4.188979   -0.848297
 S        -14.875883    4.838283   -0.390063
 C        -11.142837   -0.408153   -0.214104
 S        -12.732401   -1.045196   -0.684407
 C        -11.178116    0.960585   -0.050755
 H        -10.311020    1.534312    0.253754
 H        -17.269852    4.864360   -0.970774
 C        -10.031927   -1.295819   -0.050899
 C        -10.003506   -2.679826   -0.209323
 S         -8.439700   -0.697302    0.376517
 C         -8.751189   -3.250963    0.027377
 H        -10.874136   -3.260235   -0.496144
 C         -7.752727   -2.334151    0.380694
 H         -8.559437   -4.309656   -0.044664
 C         -6.360597   -2.567059    0.656967
 C         -5.740260   -3.805025    0.971538
 C         -5.400194   -1.494190    0.613612
 C         -4.336045   -4.000947    1.060212
 C         -3.991855   -1.687958    0.698896
 C         -3.368215   -2.979658    0.832900
 N         -5.632306   -0.178825    0.461536
 N         -3.397881   -0.486717    0.597377
 N         -4.416179    0.360436    0.458797
 C         -4.214858    1.798567    0.412581
 H         -3.263135    1.995295   -0.081173
 H         -5.036638    2.239401   -0.151472
 H         -4.197840    2.211813    1.426027
 C         -1.950868   -3.138093    0.702504
 C         -1.206289   -4.310174    0.462561
 S         -0.850345   -1.746338    0.742988
 C          0.162116   -4.109743    0.341184
 H         -1.674141   -5.278815    0.389540
 C          0.557474   -2.771414    0.480326
 H          0.864698   -4.913745    0.148402
 C         -6.393017   -5.081514    1.409645
 C         -4.109388   -5.386585    1.566825
 N         -5.369330   -5.963713    1.727655
 O         -3.072740   -5.971059    1.847370
 O         -7.572808   -5.375671    1.531074
 C         -5.598105   -7.299859    2.246237
 H         -6.110895   -7.256316    3.211840
 H         -6.211049   -7.875571    1.547505
 H         -4.625046   -7.775904    2.368407
 C          1.863450   -2.230339    0.410487
 C          2.254534   -0.899839    0.560138
 S          3.263792   -3.275387    0.099439
 C          3.639496   -0.678377    0.426187
 H          1.545092   -0.110938    0.778447
 C          4.363881   -1.895022    0.174632
 C          4.347177    0.557432    0.559889
 C          5.743483   -1.955866    0.065679
 C          5.728559    0.494241    0.451311
 C          6.449674   -0.720647    0.197387
 S          6.831367    1.872493    0.523911
 C          7.837869   -0.498324    0.059582
 C          8.226022    0.826295    0.208661
 H          8.545775   -1.289694   -0.155581
 C          9.539836    1.373388    0.132661
 C          9.935400    2.700055    0.304527
 S         10.936146    0.358930   -0.187474
 C         11.310036    2.901628    0.157066
 H          9.240090    3.499704    0.536421
 C         12.035854    1.743828   -0.133190
 H         11.780741    3.867982    0.244617
 C         13.462238    1.588112   -0.330924
 C         14.394064    2.591678   -0.662912
 C         14.093960    0.305683   -0.173511
 C         15.810773    2.375503   -0.741371
 C         14.143328    3.991573   -1.121388
 C         15.499987    0.098570   -0.256502
 N         13.515324   -0.880429    0.097817
 C         16.441854    1.148360   -0.514068
 C         16.434084    3.648543   -1.227196
 N         15.384654    4.540961   -1.430361
 O         13.101578    4.615776   -1.260814
 N         15.745822   -1.208014   -0.029274
 N         14.540162   -1.719911    0.165966
 C         17.877400    0.891953   -0.516127
 O         17.601907    3.922832   -1.446995
 C         15.549831    5.892979   -1.933716
 C         14.341309   -3.147034    0.377656
 C         18.909086    1.728522   -0.130601
 S         18.536589   -0.666598   -1.020522
 H         15.065415    6.000667   -2.908547
 H         15.105852    6.610084   -1.238188
 H         16.619571    6.078734   -2.030681
 H         15.251420   -3.552128    0.818087
 H         13.493846   -3.279734    1.049915
 H         14.137964   -3.638854   -0.577815
 C         20.196068    1.145852   -0.249764
 H         18.740265    2.734101    0.225761
 C         20.154177   -0.136053   -0.735211
 H         21.114678    1.658521    0.013114
 H         20.981757   -0.805997   -0.929010
 C          6.464957   -3.234734   -0.173420
 C          7.435276   -3.684835    0.733692
 C          6.179617   -4.013667   -1.305831
 C          8.085899   -4.888361    0.491444
 H          7.675993   -3.123328    1.629364
 C          6.863685   -5.206284   -1.492513
 H          5.452844   -3.696294   -2.044936
 C          7.835340   -5.697301   -0.618205
 C          3.627974    1.836258    0.798560
 C          3.929724    2.626550    1.919327
 C          2.643133    2.278012   -0.097570
 C          3.247581    3.820186    2.105527
 H          4.666022    2.315812    2.651762
 C          1.995801    3.483363    0.143286
 H          2.388968    1.708577   -0.984403
 C          2.262508    4.302797    1.241621
 C        -15.774750   -0.165817   -1.232061
 C        -16.898973   -0.373355   -0.420391
 C        -15.604891   -0.964488   -2.373764
 C        -17.813541   -1.361475   -0.764013
 H        -17.061569    0.210219    0.478780
 C        -16.552764   -1.935266   -2.664029
 H        -14.761051   -0.828604   -3.040713
 C        -17.687066   -2.180018   -1.887484
 C        -11.821172    3.961432    0.165410
 C        -10.676753    4.143027   -0.625180
 C        -12.011152    4.789914    1.283105
 C         -9.764400    5.134120   -0.285255
 H        -10.497526    3.537870   -1.506689
 C        -11.063928    5.761593    1.571048
 H        -12.869263    4.674479    1.935350
 C         -9.911016    5.981099    0.814469
 F          9.011430   -5.299257    1.388128
 F          6.586238   -5.943041   -2.591167
 F          3.540853    4.566756    3.193505
 F          1.057406    3.886104   -0.743385
 F        -18.884700   -1.541162    0.042623
 F        -16.382072   -2.692319   -3.771529
 F        -11.254326    6.546236    2.655827
 F         -8.674663    5.288774   -1.072228
 C          8.544968   -7.000022   -0.872700
 H          7.832503   -7.831235   -0.917468
 H          9.074154   -6.976722   -1.831846
 H          9.267963   -7.206628   -0.082281
 C          1.555238    5.606870    1.495200
 H          1.035882    5.589367    2.459870
 H          2.267818    6.438565    1.527490
 H          0.823878    5.808138    0.711138
 C         -8.917411    7.052469    1.175556
 H         -9.389853    8.041116    1.174863
 H         -8.512950    6.888986    2.180729
 H         -8.088573    7.064894    0.466238
 C        -18.682518   -3.248666   -2.252010
 H        -19.502515   -3.273605   -1.532843
 H        -19.099523   -3.071683   -3.249634
 H        -18.207767   -4.236083   -2.271165
