       148
S0: Total Energy = -10859.5924573
 C        -21.354399   -0.709391    0.742926
 C        -20.752479    0.466455    0.434288
 C        -19.312897    0.396478    0.484419
 C        -18.860966   -0.908228    0.840758
 S        -20.225285   -1.992290    1.115116
 H        -21.299541    1.361641    0.166666
 C        -18.374517    1.413005    0.183967
 C        -17.507971   -1.266612    0.905072
 C        -17.022945    1.053965    0.243618
 C        -16.569725   -0.249152    0.602096
 C        -15.139780   -0.316384    0.663137
 C        -14.501872    0.858467    0.355590
 S        -15.665792    2.140372   -0.034326
 H        -14.603925   -1.209582    0.959732
 C        -18.777736    2.783486   -0.175812
 C        -18.420828    3.508427   -1.284981
 C        -18.965685    4.821334   -1.262048
 C        -19.726132    5.139986   -0.173112
 S        -19.780140    3.758207    0.894648
 H        -17.815971    3.126648   -2.098653
 C        -17.102482   -2.634619    1.267981
 C        -17.473407   -3.364158    2.369770
 C        -16.921186   -4.673754    2.353254
 C        -16.141521   -4.986256    1.276059
 S        -16.077603   -3.602538    0.211835
 H        -18.093964   -2.987738    3.173970
 C        -13.071652    1.079836    0.287897
 C        -12.321870    2.247632    0.370094
 C        -10.926367    1.993069    0.286792
 C        -10.583921    0.665033    0.138740
 S        -12.028055   -0.321880    0.074073
 H        -10.188623    2.786101    0.359719
 C        -20.423143    6.432297    0.119117
 H        -20.059032    6.893066    1.044843
 H        -20.241131    7.131667   -0.701698
 H        -21.506699    6.298530    0.218111
 C        -15.432509   -6.274005    0.992917
 H        -15.778345   -6.734561    0.060116
 H        -15.624553   -6.976190    1.809016
 H        -14.348238   -6.133845    0.912631
 H        -22.416296   -0.916055    0.777112
 F        -18.744676    5.691712   -2.270173
 F        -17.153410   -5.547134    3.356177
 C         -9.271937    0.072246    0.038770
 C         -8.918191   -1.257348    0.085786
 S         -7.846566    1.099150   -0.180565
 C         -7.520770   -1.477773   -0.044115
 H         -9.631967   -2.061372    0.223535
 C         -6.788848   -0.290089   -0.191584
 C         -5.374890   -0.293008   -0.327749
 C         -4.633374   -1.483933   -0.324386
 S         -4.328154    1.092341   -0.512189
 C         -3.237497   -1.270374   -0.479303
 C         -2.894256    0.057484   -0.599197
 H         -2.516973   -2.079509   -0.512613
 C         -6.794965   -2.720895   -0.035223
 C         -5.349324   -2.724081   -0.176892
 S         -6.062981   -5.005988    0.038568
 N         -7.322384   -3.935091    0.094026
 N         -4.812207   -3.940642   -0.152522
 C         -1.586700    0.643686   -0.768648
 C         -1.253221    1.945457   -1.079790
 S         -0.135659   -0.315464   -0.572875
 C          0.140624    2.200196   -1.183125
 H         -1.996388    2.716825   -1.256115
 C          0.899991    1.058560   -0.949449
 C        -12.865606    3.641770    0.553956
 H        -13.311674    4.030010   -0.370046
 H        -13.635576    3.682892    1.330816
 H        -12.061399    4.325879    0.840431
 C          0.672975    3.566442   -1.533608
 H         -0.142548    4.214852   -1.866897
 H          1.146929    4.052804   -0.672177
 H          1.417325    3.523860   -2.335378
 C          2.332008    0.845013   -0.972754
 C          2.984748   -0.359411   -1.062232
 S          3.481906    2.188466   -0.819243
 C          4.411875   -0.266500   -1.014537
 H          2.459910   -1.301329   -1.163518
 C          4.850568    1.082878   -0.873447
 C          5.361092   -1.319500   -1.049202
 C          6.194555    1.451026   -0.749924
 C          6.704696   -0.952018   -0.917606
 C          4.973829   -2.730962   -1.209591
 C          7.143238    0.397526   -0.776255
 C          6.584017    2.863074   -0.597582
 S          8.074071   -2.056861   -0.974619
 C          5.308882   -3.796795   -0.412418
 S          4.027492   -3.275814   -2.591637
 C          8.571030    0.492320   -0.741092
 C          6.256005    3.923916   -1.404174
 S          7.526265    3.414723    0.784201
 C          9.223322   -0.711693   -0.834937
 C          4.792665   -5.022063   -0.915184
 H          5.877597   -3.720438    0.506490
 C          4.075109   -4.943817   -2.074848
 H          9.097818    1.436568   -0.678925
 C          6.774357    5.151114   -0.908394
 H          5.689963    3.842670   -2.324286
 C          7.486717    5.078968    0.254876
 C         10.653262   -0.933598   -0.778623
 F          4.998250   -6.189184   -0.268750
 C          3.412943   -6.056120   -2.826889
 F          6.575299    6.314163   -1.564448
 C          8.148866    6.194643    1.001949
 C         11.432998   -1.991793   -1.231845
 S         11.653518    0.305358   -0.026961
 H          3.808978   -6.154285   -3.844393
 H          3.589541   -6.999055   -2.301859
 H          2.329546   -5.907718   -2.904475
 H          7.747860    6.301705    2.016590
 H          7.978240    7.134242    0.469012
 H          9.231305    6.043105    1.086366
 C         12.816754   -1.776814   -0.991318
 C         10.930902   -3.230888   -1.928622
 C         13.121158   -0.586826   -0.363364
 H         13.575463   -2.487516   -1.304089
 H         10.455129   -3.927939   -1.227720
 H         10.196121   -2.995997   -2.705148
 H         11.762869   -3.761026   -2.401500
 C         14.413374   -0.064067    0.011178
 C         14.746146    1.204250    0.429553
 S         15.839541   -1.112480   -0.027475
 C         16.129062    1.362664    0.716346
 H         14.028907    2.012180    0.517808
 C         16.870258    0.189846    0.510622
 C         16.833266    2.534702    1.166225
 C         18.272849    0.140039    0.732965
 C         18.267124    2.482826    1.395576
 N         16.295044    3.726110    1.411368
 C         18.992812    1.260005    1.172374
 S         19.329231   -1.233782    0.519210
 N         18.784171    3.636255    1.810099
 S         17.530521    4.711431    1.900553
 C         20.380110    0.997700    1.343518
 C         20.736025   -0.295943    1.042156
 H         21.083387    1.744777    1.693043
 C         22.040664   -0.919511    1.098333
 C         22.363655   -2.257123    1.032369
 S         23.498054    0.047075    1.270932
 C         23.764437   -2.529370    1.123858
 H         21.616461   -3.039205    0.935862
 C         24.492309   -1.375931    1.260601
 C         24.354185   -3.913856    1.081064
 H         25.565871   -1.276892    1.355562
 H         23.962793   -4.537596    1.893912
 H         24.110603   -4.420187    0.139103
 H         25.443565   -3.883854    1.174771
       148
T1: Total Energy = -10859.5435670
 C         21.373034   -0.758847   -0.299342
 C         20.777487    0.456172   -0.194992
 C         19.338289    0.384576   -0.209158
 C         18.877986   -0.960499   -0.321465
 S         20.236323   -2.082020   -0.419941
 H         21.330116    1.382276   -0.099103
 C         18.406274    1.443829   -0.077730
 C         17.523763   -1.318748   -0.298839
 C         17.054623    1.087393   -0.052946
 C         16.591552   -0.257194   -0.167328
 C         15.165558   -0.327218   -0.187269
 C         14.527190    0.889932   -0.078514
 S         15.706482    2.214776    0.051830
 H         14.626980   -1.259423   -0.304227
 C         18.819794    2.853883    0.029337
 C         18.488986    3.762101    1.003341
 C         19.036067    5.047893    0.741529
 C         19.773277    5.168359   -0.401970
 S         19.800733    3.622155   -1.214972
 H         17.900944    3.530599    1.883279
 C         17.109842   -2.726708   -0.405904
 C         17.472824   -3.645679   -1.358945
 C         16.915968   -4.927956   -1.103626
 C         16.140154   -5.036950    0.015482
 S         16.086096   -3.483524    0.812210
 H         18.090016   -3.423707   -2.221085
 C         13.107620    1.116073   -0.050208
 C         12.361138    2.303558   -0.068674
 C         10.974262    2.065997   -0.041055
 C         10.601404    0.723487    0.000880
 S         12.039565   -0.289177    0.015564
 H         10.247573    2.871808   -0.058403
 C         20.467102    6.386206   -0.928067
 H         20.087517    6.679127   -1.913918
 H         20.300672    7.219459   -0.239608
 H         21.548562    6.232172   -1.020437
 C         15.426715   -6.248817    0.528793
 H         15.770830   -6.532053    1.530361
 H         15.616358   -7.089015   -0.145044
 H         14.342938   -6.092567    0.581235
 H         22.433948   -0.972760   -0.313000
 F         18.838915    6.081186    1.587824
 F         17.140015   -5.969266   -1.932907
 C          9.298582    0.164707    0.034324
 C          8.928788   -1.183068    0.055213
 S          7.858953    1.214692    0.057992
 C          7.549902   -1.397948    0.088410
 H          9.651711   -1.991161    0.044204
 C          6.789720   -0.183546    0.095008
 C          5.405150   -0.182754    0.127165
 C          4.646717   -1.402528    0.153316
 S          4.334011    1.215806    0.141827
 C          3.274442   -1.197617    0.181314
 C          2.891609    0.159283    0.179751
 H          2.554516   -2.008075    0.201899
 C          6.828545   -2.647649    0.114644
 C          5.376850   -2.651107    0.146882
 S          6.106974   -4.944927    0.149110
 N          7.368874   -3.859789    0.112539
 N          4.841343   -3.863376    0.168560
 C          1.599279    0.699401    0.203509
 C          1.213436    2.055038    0.200343
 S          0.160193   -0.323276    0.247054
 C         -0.158843    2.287513    0.227217
 H          1.940200    2.860440    0.175905
 C         -0.916066    1.087162    0.251095
 C         12.924180    3.700230   -0.122177
 H         13.504098    3.941720    0.776367
 H         13.583426    3.843164   -0.985534
 H         12.113075    4.429953   -0.197110
 C         -0.733675    3.678897    0.224281
 H          0.070906    4.418108    0.181016
 H         -1.389757    3.847267   -0.637350
 H         -1.321709    3.879119    1.127522
 C         -2.319032    0.868640    0.273117
 C         -2.963363   -0.364793    0.238678
 S         -3.509282    2.190980    0.357800
 C         -4.378355   -0.300028    0.282931
 H         -2.420956   -1.298454    0.158156
 C         -4.851600    1.049472    0.335161
 C         -5.310172   -1.376705    0.225443
 C         -6.201115    1.395954    0.315229
 C         -6.662616   -1.026609    0.202830
 C         -4.888456   -2.784560    0.189646
 C         -7.132367    0.320166    0.253814
 C         -6.626306    2.804795    0.356516
 S         -8.009307   -2.160957    0.187364
 C         -5.272583   -3.761001   -0.696351
 S         -3.823270   -3.462427    1.419547
 C         -8.554121    0.386735    0.298302
 C         -6.280294    3.767216    1.271778
 S         -7.645699    3.497160   -0.902346
 C         -9.188049   -0.836908    0.268328
 C         -4.699822   -5.022604   -0.381907
 H         -5.913265   -3.593680   -1.553702
 C         -3.890542   -5.060446    0.718245
 H         -9.095742    1.321155    0.378902
 C         -6.845650    5.032333    0.955109
 H         -5.669474    3.588366    2.148471
 C         -7.612449    5.084677   -0.174113
 C        -10.610929   -1.074484    0.265261
 F         -4.940454   -6.112394   -1.140824
 C         -3.152984   -6.235546    1.280436
 F         -6.637722    6.111084    1.739519
 C         -8.332410    6.266000   -0.746205
 C        -11.347480   -2.239526    0.474237
 S        -11.681711    0.292522   -0.042453
 H         -3.463421   -6.459469    2.307672
 H         -3.357674   -7.115743    0.664619
 H         -2.069301   -6.070503    1.288895
 H         -7.984168    6.506396   -1.757470
 H         -8.154107    7.137430   -0.110007
 H         -9.414494    6.098274   -0.798121
 C        -12.744947   -2.008569    0.403520
 C        -10.784554   -3.607099    0.764387
 C        -13.110086   -0.702706    0.142354
 H        -13.469677   -2.801409    0.559924
 H        -10.269031   -4.029661   -0.106621
 H        -10.067133   -3.588862    1.591792
 H        -11.589436   -4.296618    1.034717
 C        -14.430905   -0.140154    0.014712
 C        -14.799151    1.179362   -0.128491
 S        -15.853333   -1.195605    0.025548
 C        -16.202943    1.369808   -0.226935
 H        -14.089925    1.998662   -0.155228
 C        -16.926407    0.169682   -0.156047
 C        -16.943016    2.595019   -0.380494
 C        -18.344665    0.143688   -0.229957
 C        -18.393501    2.567621   -0.458390
 N        -16.425553    3.817321   -0.465229
 C        -19.099777    1.315852   -0.380338
 S        -19.382302   -1.258658   -0.151816
 N        -18.943842    3.770256   -0.600836
 S        -17.699436    4.859359   -0.632767
 C        -20.499173    1.072064   -0.442526
 C        -20.830443   -0.258938   -0.340265
 H        -21.230466    1.861509   -0.572596
 C        -22.138296   -0.877242   -0.363500
 C        -22.462683   -2.211044   -0.481758
 S        -23.598762    0.090850   -0.228840
 C        -23.867284   -2.478090   -0.472738
 H        -21.715349   -2.991718   -0.588163
 C        -24.596878   -1.324471   -0.346530
 C        -24.459585   -3.856857   -0.593552
 H        -25.673755   -1.221401   -0.313943
 H        -24.159119   -4.337222   -1.532651
 H        -24.123274   -4.506342    0.223789
 H        -25.552559   -3.822576   -0.567864
       148
S1: Total Energy = -10859.5270238
 C         21.382480   -0.727213   -0.234527
 C         20.780812    0.486244   -0.144087
 C         19.342450    0.408654   -0.164709
 C         18.887558   -0.938930   -0.266711
 S         20.251490   -2.055757   -0.348346
 H         21.329141    1.415488   -0.053739
 C         18.405049    1.465741   -0.046426
 C         17.534572   -1.302714   -0.245797
 C         17.055271    1.104591   -0.022966
 C         16.596609   -0.243201   -0.127296
 C         15.172195   -0.318296   -0.153443
 C         14.527831    0.897509   -0.057832
 S         15.701973    2.227502    0.066475
 H         14.636826   -1.252760   -0.266783
 C         18.813158    2.878076    0.049285
 C         18.473448    3.794964    1.012060
 C         19.017919    5.079901    0.740843
 C         19.761828    5.191559   -0.399175
 S         19.799269    3.637463   -1.196669
 H         17.880671    3.570262    1.890568
 C         17.127100   -2.712677   -0.341465
 C         17.508296   -3.642740   -1.276929
 C         16.952856   -4.923837   -1.013909
 C         16.160158   -5.021992    0.094397
 S         16.087299   -3.458940    0.870352
 H         18.136961   -3.429172   -2.132854
 C         13.107877    1.120373   -0.036220
 C         12.358066    2.302136   -0.079126
 C         10.968876    2.058931   -0.050877
 C         10.602969    0.719887    0.015367
 S         12.042718   -0.285901    0.054550
 H         10.239819    2.862131   -0.086522
 C         20.455176    6.406376   -0.932818
 H         20.080573    6.688835   -1.923628
 H         20.282267    7.245679   -0.253346
 H         21.537627    6.254720   -1.017409
 C         15.442643   -6.229907    0.611211
 H         15.771044   -6.499230    1.621874
 H         15.646232   -7.077886   -0.048682
 H         14.357616   -6.076880    0.643850
 H         22.444322   -0.936728   -0.241327
 F         18.812362    6.120894    1.575774
 F         17.193534   -5.974618   -1.826592
 C          9.296767    0.149995    0.054812
 C          8.933449   -1.189756    0.091708
 S          7.856002    1.194121    0.062871
 C          7.544701   -1.408043    0.124728
 H          9.656154   -1.998155    0.091651
 C          6.791426   -0.202030    0.113762
 C          5.395066   -0.203996    0.140206
 C          4.648117   -1.415365    0.177475
 S          4.324411    1.187985    0.131672
 C          3.262446   -1.207875    0.195256
 C          2.886645    0.135143    0.174148
 H          2.545186   -2.020710    0.221940
 C          6.827971   -2.656149    0.164023
 C          5.375282   -2.660947    0.190270
 S          6.108460   -4.953527    0.224604
 N          7.370911   -3.870547    0.179558
 N          4.839353   -3.876014    0.225132
 C          1.583510    0.688411    0.180704
 C          1.205899    2.036042    0.158729
 S          0.150546   -0.329795    0.220991
 C         -0.172967    2.272769    0.169088
 H          1.933180    2.840890    0.132729
 C         -0.927676    1.077839    0.198120
 C         12.914284    3.700473   -0.157984
 H         13.483100    3.965625    0.741160
 H         13.582451    3.828176   -1.016908
 H         12.100291    4.424077   -0.257991
 C         -0.742961    3.665454    0.145379
 H          0.063853    4.402220    0.103578
 H         -1.389268    3.827235   -0.725120
 H         -1.340600    3.876965    1.039981
 C         -2.329181    0.858635    0.205454
 C         -2.975223   -0.379280    0.173433
 S         -3.519220    2.177734    0.261294
 C         -4.382027   -0.316823    0.199242
 H         -2.428614   -1.311284    0.104229
 C         -4.862013    1.035018    0.230239
 C         -5.315189   -1.402144    0.135488
 C         -6.207148    1.378916    0.178946
 C         -6.662423   -1.055318    0.082591
 C         -4.886930   -2.806306    0.122651
 C         -7.139402    0.294553    0.111304
 C         -6.637667    2.784563    0.196790
 S         -8.007882   -2.193904    0.052998
 C         -5.274321   -3.801069   -0.742724
 S         -3.810428   -3.459223    1.357709
 C         -8.550003    0.359365    0.130051
 C         -6.283508    3.765726    1.089866
 S         -7.671507    3.451832   -1.065055
 C         -9.192599   -0.873151    0.097057
 C         -4.696691   -5.054507   -0.408788
 H         -5.918050   -3.651348   -1.600981
 C         -3.879734   -5.069638    0.686832
 H         -9.093946    1.293790    0.191053
 C         -6.853351    5.023254    0.754631
 H         -5.666048    3.604591    1.965273
 C         -7.631513    5.052679   -0.368107
 C        -10.602831   -1.098124    0.085163
 F         -4.938692   -6.158515   -1.145585
 C         -3.135389   -6.232256    1.265361
 F         -6.639775    6.116810    1.515625
 C         -8.357336    6.222346   -0.956190
 C        -11.348472   -2.288116    0.136303
 S        -11.679669    0.301678   -0.009223
 H         -3.440985   -6.440163    2.297392
 H         -3.338844   -7.123308    0.665023
 H         -2.052485   -6.062291    1.266857
 H         -8.015785    6.445296   -1.973681
 H         -8.176580    7.105095   -0.336603
 H         -9.439300    6.051442   -0.998254
 C        -12.735971   -2.050674    0.107117
 C        -10.782496   -3.680617    0.221245
 C        -13.107510   -0.714269    0.032732
 H        -13.461264   -2.857046    0.146442
 H        -10.188126   -3.934826   -0.664471
 H        -10.135104   -3.806716    1.096590
 H        -11.591671   -4.412214    0.297056
 C        -14.422297   -0.152278   -0.014425
 C        -14.795055    1.180035   -0.055069
 S        -15.850209   -1.205913   -0.033453
 C        -16.193718    1.377307   -0.100654
 H        -14.084052    1.998302   -0.050546
 C        -16.922985    0.172131   -0.095642
 C        -16.933657    2.612859   -0.149920
 C        -18.336876    0.155516   -0.138617
 C        -18.385415    2.593328   -0.193811
 N        -16.413259    3.835806   -0.161122
 C        -19.093215    1.340218   -0.187893
 S        -19.379950   -1.247536   -0.139688
 N        -18.935116    3.804010   -0.237380
 S        -17.687414    4.891485   -0.223235
 C        -20.491515    1.104502   -0.231827
 C        -20.828071   -0.231339   -0.216536
 H        -21.222396    1.903458   -0.281982
 C        -22.137977   -0.838576   -0.251442
 C        -22.471878   -2.172032   -0.362179
 S        -23.594090    0.141605   -0.145862
 C        -23.877434   -2.428415   -0.367820
 H        -21.729663   -2.960075   -0.447822
 C        -24.600151   -1.267905   -0.260057
 C        -24.479050   -3.803700   -0.481857
 H        -25.676563   -1.157049   -0.239780
 H        -24.171692   -4.295336   -1.412822
 H        -24.156850   -4.447551    0.345523
 H        -25.571910   -3.760872   -0.468854
