       137
S0: Total Energy = -9519.25110110
 C        -18.551566   -0.278821    0.076700
 C        -19.125847    0.983393    0.026079
 S        -19.788072   -1.502077    0.282807
 C        -20.525575    0.978583    0.142044
 H        -18.545486    1.890810   -0.102310
 C        -21.073378   -0.292990    0.287168
 H        -21.146399    1.868582    0.117933
 C        -22.474809   -0.569111    0.419123
 C        -23.520008    0.360126    0.416468
 N        -23.057520   -1.825844    0.576089
 C        -23.792643    1.773394    0.308084
 C        -24.755703   -0.323290    0.571733
 C        -24.483549   -1.737519    0.677815
 C        -22.409707   -3.124621    0.648310
 N        -25.219830    1.860797    0.407037
 O        -23.076036    2.765103    0.164563
 C        -25.800447    0.605238    0.565158
 O        -25.200174   -2.728725    0.822402
 H        -23.208628   -3.856212    0.779973
 H        -21.727908   -3.185391    1.502141
 H        -21.866832   -3.353858   -0.273798
 C        -25.867861    3.159769    0.336703
 C        -27.207678    0.330617    0.695484
 H        -25.068987    3.892433    0.211612
 H        -26.546204    3.222716   -0.519609
 H        -26.415986    3.383860    1.256831
 C        -27.754623   -0.936886    0.851920
 S        -28.493712    1.538675    0.681653
 H        -27.134998   -1.827221    0.886556
 C        -29.166107   -0.933986    0.957316
 C        -29.705730    0.325139    0.883004
 H        -29.761357   -1.831331    1.083683
 H        -30.747131    0.614418    0.934611
 C        -17.161019   -0.639617   -0.013444
 C        -16.599304   -1.902614   -0.090481
 S        -15.918077    0.629895   -0.033401
 C        -15.190451   -1.857980   -0.167624
 H        -17.185855   -2.814138   -0.099746
 C        -14.658574   -0.564594   -0.151979
 S        -13.944152   -3.095468   -0.285406
 C        -13.247915   -0.556608   -0.232460
 C        -12.706514   -1.843882   -0.309885
 S        -11.996913    0.652145   -0.254597
 C        -11.297351   -1.872707   -0.385286
 C        -10.744209   -0.603402   -0.365894
 H        -10.705103   -2.778462   -0.448223
 C         -9.356428   -0.226826   -0.416412
 S         -8.096645   -1.437419   -0.543540
 C         -8.800310    1.044335   -0.372384
 C         -6.827874   -0.210511   -0.530766
 C         -7.397934    1.056643   -0.434980
 H         -9.396861    1.946848   -0.292949
 C         -5.419932   -0.469901   -0.595972
 H         -6.790182    1.955522   -0.407637
 C         -4.386235    0.473609   -0.554474
 N         -4.813889   -1.720624   -0.704615
 C         -3.137794   -0.195403   -0.630510
 C         -4.137277    1.891971   -0.442709
 C         -3.386570   -1.614646   -0.731008
 C         -5.441033   -3.028311   -0.798787
 C         -2.103646    0.746197   -0.563703
 N         -2.709812    1.996814   -0.453783
 O         -4.874519    2.875152   -0.355809
 O         -2.649431   -2.597177   -0.825467
 H         -4.627924   -3.750219   -0.890866
 H         -6.021132   -3.260546    0.099613
 H         -6.083554   -3.101306   -1.681526
 C         -0.694913    0.484634   -0.591192
 C         -2.083230    3.305350   -0.368019
 S          0.574577    1.702785   -0.451548
 C         -0.123887   -0.779497   -0.717048
 H         -2.897366    4.030463   -0.321617
 H         -1.470499    3.513697   -1.250267
 H         -1.472972    3.399852    0.535484
 C          1.836149    0.492732   -0.564690
 C          1.279932   -0.771678   -0.702691
 H         -0.731831   -1.673636   -0.812100
 C          3.224904    0.863539   -0.502013
 H          1.877592   -1.672527   -0.792146
 C          3.777489    2.129008   -0.397556
 S          4.479530   -0.394430   -0.543399
 C          5.187520    2.095260   -0.349040
 H          3.184188    3.035408   -0.358733
 C          5.730532    0.807972   -0.416119
 S          6.424926    3.340110   -0.215694
 C          7.142199    0.810495   -0.358870
 C          7.673452    2.099640   -0.248802
 S          8.403757   -0.387429   -0.383154
 C          9.082907    2.138590   -0.185051
 C          9.646621    0.875241   -0.245117
 H          9.667964    3.047156   -0.099685
 C         11.037798    0.509667   -0.207516
 S         12.285610    1.726950   -0.033419
 C         11.606148   -0.753861   -0.291425
 C         13.565798    0.512889   -0.077572
 C         13.008391   -0.755382   -0.219761
 H         11.018600   -1.658773   -0.404058
 C         14.970336    0.782459    0.019862
 H         13.624564   -1.647593   -0.268548
 C         16.012113   -0.152004   -0.008938
 N         15.563426    2.035933    0.164233
 C         17.252531    0.524658    0.118813
 C         16.274928   -1.567804   -0.121445
 C         16.990227    1.939965    0.232106
 C         14.924729    3.338675    0.246559
 C         18.294494   -0.410567    0.092463
 N         17.701507   -1.663863   -0.052357
 O         15.548582   -2.554568   -0.249576
 O         17.716552    2.927161    0.359541
 H         15.730705    4.066675    0.352540
 H         14.358357    3.565298   -0.661930
 H         14.266566    3.408196    1.118084
 C         19.698363   -0.142117    0.195150
 C         18.340547   -2.966490   -0.135592
 S         20.978892   -1.357183    0.163253
 C         20.255894    1.125832    0.337781
 H         17.535181   -3.694431   -0.246243
 H         18.903694   -3.195229    0.774345
 H         19.001954   -3.033353   -1.004806
 C         22.225912   -0.140242    0.341022
 C         21.657933    1.123622    0.418340
 H         19.640069    2.018666    0.380419
 C         23.617455   -0.507352    0.390106
 H         22.245698    2.028389    0.530609
 C         24.182596   -1.767030    0.305146
 S         24.858150    0.750172    0.584785
 C         25.592809   -1.729272    0.394376
 H         23.600168   -2.673295    0.183468
 C         26.120146   -0.445913    0.547921
 S         26.844521   -2.966674    0.352889
 C         27.535507   -0.444061    0.633856
 C         28.078045   -1.726342    0.545011
 S         28.790166    0.749626    0.823449
 C         29.498873   -1.758124    0.627894
 C         30.015810   -0.500643    0.778611
 H         30.104872   -2.655084    0.579118
 H         31.056427   -0.219102    0.868001
       137
T1: Total Energy = -9519.22144402
 C        -18.537040   -0.286369    0.106733
 C        -19.103194    0.982670    0.113914
 S        -19.787918   -1.509498    0.214624
 C        -20.503190    0.982890    0.200875
 H        -18.513770    1.891318    0.053402
 C        -21.064296   -0.291142    0.264749
 H        -21.117043    1.877925    0.216294
 C        -22.468330   -0.560997    0.355721
 C        -23.506704    0.377051    0.387272
 N        -23.065269   -1.819168    0.430463
 C        -23.765657    1.796633    0.355399
 C        -24.749980   -0.302363    0.481281
 C        -24.491456   -1.723140    0.511419
 C        -22.430067   -3.126132    0.439078
 N        -25.193489    1.891601    0.434179
 O        -23.038298    2.788421    0.281579
 C        -25.787447    0.634683    0.509835
 O        -25.219462   -2.713858    0.586207
 H        -23.237533   -3.856443    0.513134
 H        -21.765207   -3.242929    1.300385
 H        -21.871716   -3.306761   -0.484573
 C        -25.829177    3.198510    0.426981
 C        -27.198704    0.365919    0.599592
 H        -25.022076    3.929541    0.357476
 H        -26.491880    3.316426   -0.435736
 H        -26.391414    3.375153    1.348920
 C        -27.759020   -0.903451    0.672427
 S        -28.474392    1.584738    0.634831
 H        -27.147492   -1.800001    0.665535
 C        -29.172006   -0.893468    0.753905
 C        -29.699858    0.372801    0.744303
 H        -29.776838   -1.791062    0.817436
 H        -30.739556    0.668312    0.794882
 C        -17.150363   -0.650330    0.027204
 C        -16.589289   -1.918210   -0.023920
 S        -15.902974    0.616019   -0.017549
 C        -15.183866   -1.879207   -0.099588
 H        -17.177984   -2.828344   -0.010167
 C        -14.645651   -0.584690   -0.107545
 S        -13.939928   -3.122866   -0.188847
 C        -13.239669   -0.580907   -0.183342
 C        -12.697541   -1.874654   -0.234445
 S        -11.986391    0.627276   -0.226497
 C        -11.295330   -1.911020   -0.306391
 C        -10.731159   -0.636044   -0.310860
 H        -10.704816   -2.818791   -0.351091
 C         -9.356744   -0.274165   -0.365166
 S         -8.092747   -1.498874   -0.450694
 C         -8.786267    1.005660   -0.354955
 C         -6.813849   -0.267880   -0.465939
 C         -7.399496    1.017820   -0.409216
 H         -9.384208    1.909656   -0.305476
 C         -5.435296   -0.522400   -0.516728
 H         -6.791008    1.915982   -0.406284
 C         -4.370507    0.444319   -0.504927
 N         -4.801319   -1.763815   -0.577971
 C         -3.147818   -0.206147   -0.551181
 C         -4.128679    1.880387   -0.449738
 C         -3.389659   -1.642270   -0.601873
 C         -5.414394   -3.082000   -0.625417
 C         -2.082658    0.760056   -0.521634
 N         -2.717172    2.001683   -0.463247
 O         -4.887882    2.850149   -0.402552
 O         -2.630806   -2.611886   -0.656978
 H         -4.596083   -3.800841   -0.685274
 H         -5.998262   -3.281188    0.277985
 H         -6.051272   -3.190955   -1.508088
 C         -0.703897    0.504841   -0.535246
 C         -2.104732    3.320514   -0.426312
 S          0.575245    1.733450   -0.460559
 C         -0.116775   -0.780448   -0.599108
 H         -2.923925    4.040535   -0.405404
 H         -1.494702    3.498693   -1.316603
 H         -1.493793    3.449943    0.471888
 C          1.841244    0.508383   -0.509557
 C          1.270602   -0.769771   -0.584906
 H         -0.725246   -1.677204   -0.649692
 C          3.215526    0.868576   -0.462670
 H          1.869583   -1.673547   -0.625032
 C          3.777456    2.142214   -0.375417
 S          4.475312   -0.392926   -0.500712
 C          5.180256    2.105860   -0.335800
 H          3.184129    3.048517   -0.339362
 C          5.726574    0.813556   -0.391919
 S          6.420283    3.352035   -0.220991
 C          7.133102    0.816956   -0.341143
 C          7.668619    2.109706   -0.246695
 S          8.394703   -0.382693   -0.358585
 C          9.074296    2.148184   -0.189670
 C          9.639820    0.881558   -0.239054
 H          9.660804    3.056859   -0.116148
 C         11.027552    0.518631   -0.203592
 S         12.277691    1.738222   -0.049095
 C         11.597345   -0.747442   -0.275588
 C         13.557676    0.522723   -0.085057
 C         12.997775   -0.748247   -0.210491
 H         11.008972   -1.653357   -0.375113
 C         14.960670    0.791376    0.002975
 H         13.613865   -1.640907   -0.252090
 C         16.002835   -0.145046   -0.021035
 N         15.556968    2.045602    0.132200
 C         17.243476    0.531200    0.094511
 C         16.263834   -1.562266   -0.120589
 C         16.983014    1.948361    0.194835
 C         14.920237    3.349886    0.204998
 C         18.285477   -0.405387    0.073143
 N         17.690293   -1.659233   -0.056805
 O         15.535686   -2.549582   -0.235702
 O         17.711775    2.935433    0.309261
 H         15.727500    4.077946    0.300172
 H         14.349857    3.568451   -0.702940
 H         14.266246    3.428532    1.078884
 C         19.689311   -0.137117    0.167797
 C         18.327547   -2.963293   -0.130648
 S         20.968822   -1.353760    0.144233
 C         20.248823    1.131953    0.295619
 H         17.520955   -3.691339   -0.231181
 H         18.894277   -3.184244    0.778983
 H         18.985263   -3.038855   -1.001951
 C         22.217677   -0.136082    0.305316
 C         21.650856    1.129127    0.371530
 H         19.633916    2.025718    0.331153
 C         23.608804   -0.503790    0.353956
 H         22.239861    2.034448    0.472356
 C         24.173060   -1.764442    0.275729
 S         24.850794    0.754054    0.539077
 C         25.583372   -1.727089    0.362588
 H         23.589814   -2.670977    0.160192
 C         26.111895   -0.443174    0.507528
 S         26.834187   -2.965617    0.326801
 C         27.527332   -0.441832    0.591459
 C         28.068888   -1.725022    0.509686
 S         28.783073    0.752099    0.772318
 C         29.489779   -1.757287    0.590969
 C         30.007806   -0.499281    0.733460
 H         30.095100   -2.654945    0.546836
 H         31.048734   -0.217946    0.819814
       137
S1: Total Energy = -9519.20214313
 C        -18.516002   -0.292296    0.112680
 C        -19.086758    0.979273    0.142708
 S        -19.769149   -1.519200    0.194416
 C        -20.482424    0.977204    0.227649
 H        -18.497160    1.888936    0.101780
 C        -21.046685   -0.300959    0.267537
 H        -21.097140    1.871227    0.260409
 C        -22.446011   -0.569423    0.353905
 C        -23.486363    0.370988    0.406758
 N        -23.047944   -1.827749    0.403205
 C        -23.743239    1.791461    0.405968
 C        -24.728187   -0.307494    0.488540
 C        -24.471863   -1.730111    0.488381
 C        -22.415653   -3.135952    0.382199
 N        -25.170368    1.887166    0.490184
 O        -23.014251    2.783937    0.351305
 C        -25.766950    0.630547    0.540120
 O        -25.203297   -2.719812    0.543485
 H        -23.224480   -3.866206    0.440147
 H        -21.750676   -3.273417    1.240367
 H        -21.857874   -3.296797   -0.545449
 C        -25.803577    3.195039    0.512222
 C        -27.176584    0.361288    0.627729
 H        -24.995383    3.925974    0.455585
 H        -26.468763    3.331949   -0.345784
 H        -26.362867    3.353304    1.439309
 C        -27.739579   -0.909166    0.673472
 S        -28.451102    1.581158    0.695153
 H        -27.129425   -1.806175    0.644251
 C        -29.151787   -0.898539    0.759727
 C        -29.678208    0.368518    0.780892
 H        -29.757921   -1.796425    0.804629
 H        -30.717327    0.664123    0.841560
 C        -17.135176   -0.649624    0.030302
 C        -16.567824   -1.920404   -0.017448
 S        -15.888316    0.620064   -0.024001
 C        -15.167875   -1.878947   -0.096855
 H        -17.155306   -2.831135    0.003825
 C        -14.628620   -0.580004   -0.111291
 S        -13.921559   -3.121628   -0.183186
 C        -13.227845   -0.574444   -0.189220
 C        -12.680800   -1.870851   -0.236195
 S        -11.975667    0.635139   -0.239825
 C        -11.282832   -1.904827   -0.310370
 C        -10.718589   -0.627234   -0.321254
 H        -10.690461   -2.811586   -0.352355
 C         -9.346027   -0.264003   -0.379413
 S         -8.080070   -1.482493   -0.461971
 C         -8.779485    1.016514   -0.376090
 C         -6.807496   -0.250964   -0.485941
 C         -7.389819    1.028538   -0.433660
 H         -9.378312    1.919965   -0.329368
 C         -5.416750   -0.504260   -0.538352
 H         -6.781085    1.927183   -0.435437
 C         -4.371169    0.452180   -0.529959
 N         -4.792942   -1.751678   -0.598713
 C         -3.132608   -0.205920   -0.577767
 C         -4.130809    1.880817   -0.473013
 C         -3.373211   -1.634556   -0.625533
 C         -5.409406   -3.067176   -0.645179
 C         -2.086524    0.750339   -0.546701
 N         -2.711828    1.998066   -0.486456
 O         -4.881564    2.857191   -0.424760
 O         -2.623537   -2.611466   -0.680878
 H         -4.591406   -3.786603   -0.707160
 H         -5.991436   -3.268357    0.259347
 H         -6.048480   -3.177205   -1.526492
 C         -0.696533    0.497051   -0.560931
 C         -2.096401    3.314376   -0.450525
 S          0.576683    1.725483   -0.478681
 C         -0.112733   -0.783216   -0.629667
 H         -2.915608    4.034822   -0.430458
 H         -1.485884    3.493499   -1.340662
 H         -1.485716    3.446436    0.447846
 C          1.845268    0.505375   -0.531785
 C          1.275905   -0.774180   -0.614018
 H         -0.722608   -1.679444   -0.684243
 C          3.214712    0.863948   -0.482101
 H          1.875203   -1.677470   -0.657729
 C          3.778821    2.142457   -0.387190
 S          4.476898   -0.397120   -0.525450
 C          5.173894    2.108514   -0.346043
 H          3.182874    3.046883   -0.347225
 C          5.727692    0.811239   -0.408330
 S          6.412109    3.357879   -0.222715
 C          7.124613    0.816155   -0.355577
 C          7.663898    2.116552   -0.252610
 S          8.388236   -0.383824   -0.377437
 C          9.058953    2.157799   -0.192126
 C          9.634852    0.884493   -0.246844
 H          9.645017    3.066034   -0.110989
 C         11.010159    0.533172   -0.208518
 S         12.263276    1.758929   -0.064117
 C         11.589623   -0.740056   -0.269875
 C         13.546283    0.541204   -0.088356
 C         12.980033   -0.738710   -0.204568
 H         11.001032   -1.646712   -0.361030
 C         14.937581    0.804749   -0.001708
 H         13.598142   -1.630354   -0.237718
 C         15.986415   -0.139746   -0.016385
 N         15.544551    2.056526    0.117967
 C         17.221324    0.529777    0.094524
 C         16.243029   -1.560897   -0.104077
 C         16.965541    1.952280    0.182959
 C         14.913821    3.364668    0.179053
 C         18.269368   -0.412830    0.082504
 N         17.666821   -1.663516   -0.037882
 O         15.509578   -2.545294   -0.212054
 O         17.702294    2.933886    0.290222
 H         15.723651    4.090471    0.268505
 H         14.345076    3.577042   -0.731267
 H         14.259582    3.452988    1.051720
 C         19.665514   -0.146683    0.176248
 C         18.298614   -2.971111   -0.099778
 S         20.945789   -1.365999    0.162822
 C         20.230371    1.126971    0.295643
 H         17.489526   -3.697067   -0.194408
 H         18.863857   -3.185442    0.812284
 H         18.956583   -3.056311   -0.969941
 C         22.196562   -0.146753    0.316698
 C         21.627417    1.122449    0.372849
 H         19.615990    2.021304    0.323703
 C         23.582814   -0.511062    0.369930
 H         22.217898    2.027458    0.468114
 C         24.149221   -1.775201    0.308647
 S         24.826649    0.749778    0.537994
 C         25.556799   -1.736248    0.394920
 H         23.565644   -2.682981    0.205667
 C         26.086639   -0.448717    0.522841
 S         26.807707   -2.975489    0.376399
 C         27.500372   -0.447023    0.607111
 C         28.042207   -1.732306    0.542889
 S         28.756616    0.749144    0.772226
 C         29.462176   -1.763484    0.625072
 C         29.980360   -0.503143    0.750730
 H         30.067718   -2.661486    0.593416
 H         31.021431   -0.221239    0.833599
