       135
S0: Total Energy = -6324.68234552
 C        -11.201297    1.544273    0.118069
 C        -10.238602    2.538283    0.092009
 C         -8.921746    2.022259    0.073365
 C         -8.873861    0.645546    0.079673
 C         -7.510096    0.162695    0.056323
 C         -6.672867    1.309140    0.011956
 C         -5.293250    1.171645   -0.001501
 S        -10.455768   -0.063993    0.098971
 C         -7.509836    2.611188    0.014163
 H         -4.641294    2.039951   -0.026172
 C         -1.064857   -1.509668   -0.028105
 C         -2.035185   -2.502927   -0.008147
 C         -3.347967   -1.986272    0.001491
 C         -3.396615   -0.607865   -0.004615
 C         -4.759547   -0.125603    0.019853
 C         -5.596264   -1.271645    0.064042
 C         -6.976696   -1.133795    0.077635
 S         -1.819667    0.103437   -0.027611
 C         -4.760517   -2.574293    0.062778
 H         -7.628336   -2.002298    0.102752
 C         -7.384250    3.430317   -1.288781
 C         -7.897977    4.736225   -1.342387
 C         -7.877140    5.470311   -2.525525
 C         -7.342722    4.933236   -3.705491
 C         -6.839362    3.629686   -3.651529
 C         -6.859260    2.889108   -2.467266
 H         -8.312921    5.188265   -0.445987
 H         -8.283664    6.479552   -2.531960
 H         -6.422981    3.179081   -4.549871
 H         -6.463192    1.879174   -2.470970
 C         -7.134810    3.435204    1.263679
 C         -6.043879    4.317340    1.236058
 C         -5.645310    5.004440    2.381178
 C         -6.320054    4.843129    3.598828
 C         -7.404535    3.959075    3.624742
 C         -7.805628    3.266873    2.480934
 H         -5.503692    4.478147    0.307817
 H         -4.794447    5.680218    2.325568
 H         -7.948549    3.806351    4.554416
 H         -8.649602    2.587115    2.542977
 C         -5.137643   -3.399942   -1.185091
 C         -6.227605   -4.282944   -1.154174
 C         -6.628406   -4.971323   -2.297912
 C         -5.956943   -4.810246   -3.517227
 C         -4.873251   -3.925134   -3.546439
 C         -4.469942   -3.231959   -2.404197
 H         -6.765392   -4.443423   -0.224484
 H         -7.478471   -5.647914   -2.239729
 H         -4.331715   -3.772474   -4.477576
 H         -3.626380   -2.551966   -2.468682
 C         -4.886905   -3.391545    1.366759
 C         -4.366326   -4.694711    1.423805
 C         -4.389221   -5.427894    2.607268
 C         -4.932551   -4.892863    3.784279
 C         -5.442723   -3.592287    3.726852
 C         -5.420851   -2.852358    2.541991
 H         -3.943422   -5.144478    0.530054
 H         -3.976843   -6.434748    2.616607
 H         -5.865955   -3.143236    4.622775
 H         -5.822495   -1.844631    2.543097
 C         -7.293889    5.744560   -4.978972
 H         -6.450549    6.448015   -4.971618
 H         -7.176051    5.102423   -5.857773
 C         -5.906890    5.616640    4.829060
 H         -6.218005    5.105767    5.746198
 H         -4.820996    5.755687    4.868900
 C         -6.371760   -5.585005   -4.746137
 H         -7.455263   -5.744059   -4.772647
 H         -6.082165   -5.063740   -5.664534
 C         -4.982090   -5.703437    5.058242
 H         -5.126184   -5.062839    5.934215
 H         -5.809501   -6.425352    5.040017
 H         -8.205753    6.337614   -5.111524
 H         -6.361292    6.616477    4.842431
 H         -5.898757   -6.575987   -4.771054
 H         -4.059456   -6.276328    5.204849
 H         -1.777065   -3.552915    0.000811
 H        -10.488313    3.593582    0.100958
 S          9.285580    1.087545    0.002744
 C         10.800659    0.169187   -0.051186
 C         10.570529   -1.203600   -0.110207
 C          9.202385   -1.518429   -0.112408
 C          8.387277   -0.387404   -0.055315
 H         11.382277   -1.918616   -0.149052
 S          5.453019   -0.065395   -0.017104
 C          4.697539   -1.667649   -0.081024
 C          5.647724   -2.685111   -0.133653
 C          6.962386   -2.191820   -0.123190
 C          7.017285   -0.799341   -0.062214
 H          5.365943   -3.729317   -0.176863
 C         12.035663    0.912520   -0.028304
 C         13.344982    0.300784   -0.067671
 N         13.615890   -1.004564   -0.130594
 S         15.252066   -1.147492   -0.150835
 N         15.667272    0.441149   -0.080287
 C         14.527639    1.141667   -0.038442
 C         14.387877    2.571651    0.028866
 C         13.066650    3.008246    0.058666
 H         12.861140    4.075407    0.108007
 C          3.257307   -1.730664   -0.071856
 C          2.504461   -2.963033   -0.117181
 N          2.999887   -4.201260   -0.174516
 S          1.714902   -5.224148   -0.209112
 N          0.491382   -4.128161   -0.152639
 C          1.053676   -2.915621   -0.103638
 C          0.377870   -1.644982   -0.044690
 C          1.241068   -0.549838   -0.004701
 H          0.823464    0.453476    0.045181
 C          8.607706   -3.583247   -1.469252
 H          9.641231   -3.944727   -1.511588
 H          7.942033   -4.452055   -1.520460
 H          8.425269   -2.957216   -2.348152
 C          8.629889   -3.697693    1.063665
 H          7.966041   -4.569317    1.046731
 H          9.664356   -4.058913    1.056354
 H          8.461306   -3.154298    1.998524
 C          8.365097   -2.794987   -0.162336
 N         11.957293    2.239024    0.032655
 N          2.588606   -0.580885   -0.018122
 C         15.520204    3.485445    0.063058
 C         16.872097    3.202332    0.028760
 S         15.279633    5.230561    0.162036
 C         17.700416    4.358142    0.079875
 H         17.248353    2.190217   -0.031461
 C         16.987748    5.523444    0.153542
 H         18.784189    4.321090    0.062391
 H         17.357914    6.538755    0.203604
 C        -12.642173    1.675182    0.150618
 C        -13.595639    0.726357    0.458770
 S        -13.418915    3.203552   -0.242748
 C        -14.930846    1.215750    0.388919
 H        -13.344363   -0.289698    0.744562
 C        -14.997661    2.534337    0.031130
 H        -15.804632    0.610604    0.604720
 H        -15.873877    3.156889   -0.090104
       135
T1: Total Energy = -6324.65201145
 C        -11.151205    1.553979    0.072866
 C        -10.184844    2.547490    0.083354
 C         -8.871530    2.029636    0.073325
 C         -8.827052    0.649996    0.049634
 C         -7.469724    0.165441    0.035071
 C         -6.625206    1.312735    0.028278
 C         -5.249894    1.170670    0.031617
 S        -10.411026   -0.056083    0.031382
 C         -7.458407    2.616680    0.047816
 H         -4.593078    2.035389    0.035645
 C         -1.034799   -1.520872   -0.012776
 C         -2.023365   -2.520432   -0.023193
 C         -3.320168   -2.002793   -0.012131
 C         -3.367920   -0.611631    0.013255
 C         -4.719716   -0.133020    0.030916
 C         -5.564803   -1.279513    0.037838
 C         -6.942034   -1.135650    0.034956
 S         -1.791723    0.101915    0.021265
 C         -4.735905   -2.585294    0.020324
 H         -7.598263   -2.000765    0.031144
 C         -7.312743    3.464133   -1.235015
 C         -7.817136    4.774339   -1.264267
 C         -7.778179    5.534479   -2.430359
 C         -7.234255    5.020354   -3.616191
 C         -6.740713    3.712220   -3.586423
 C         -6.779062    2.945301   -2.419619
 H         -8.238246    5.209425   -0.362439
 H         -8.177394    6.546510   -2.418343
 H         -6.317473    3.279042   -4.490022
 H         -6.390195    1.932803   -2.442671
 C         -7.099915    3.410508    1.321637
 C         -6.006348    4.289733    1.329522
 C         -5.622563    4.948792    2.495864
 C         -6.315130    4.761175    3.699769
 C         -7.402090    3.879898    3.689891
 C         -7.788432    3.215307    2.524809
 H         -5.452822    4.470970    0.412998
 H         -4.769425    5.623306    2.468080
 H         -7.959674    3.707236    4.607874
 H         -8.634753    2.536502    2.559997
 C         -5.101468   -3.384356   -1.248081
 C         -6.193182   -4.265517   -1.244212
 C         -6.584875   -4.929299   -2.405451
 C         -5.902303   -4.744328   -3.615158
 C         -4.817159   -3.860454   -3.616963
 C         -4.423044   -3.191317   -2.457463
 H         -6.738659   -4.444973   -0.322562
 H         -7.435913   -5.606041   -2.368546
 H         -4.266743   -3.690125   -4.539652
 H         -3.577178   -2.512607   -2.501898
 C         -4.880036   -3.425767    1.307911
 C         -4.363162   -4.731017    1.346124
 C         -4.403241   -5.485801    2.515139
 C         -4.960671   -4.971376    3.694974
 C         -5.466764   -3.668657    3.655928
 C         -5.427082   -2.906321    2.485738
 H         -3.929170   -5.164960    0.450000
 H         -3.992711   -6.493289    2.510944
 H         -5.899967   -3.235305    4.554714
 H         -5.825233   -1.897297    2.501823
 C         -7.165322    5.859874   -4.870192
 H         -6.315750    6.554991   -4.837909
 H         -7.044189    5.236951   -5.762220
 C         -5.917323    5.504608    4.953257
 H         -6.246139    4.975593    5.853712
 H         -4.831476    5.636115    5.013321
 C         -6.306655   -5.493594   -4.863048
 H         -7.388979   -5.658432   -4.898363
 H         -6.015382   -4.950486   -5.768118
 C         -5.027152   -5.805508    4.952692
 H         -5.192456   -5.182338    5.837369
 H         -5.848077   -6.533392    4.905317
 H         -8.070365    6.464207   -4.997993
 H         -6.366159    6.506600    4.981132
 H         -5.827266   -6.480742   -4.907123
 H         -4.102703   -6.373722    5.105517
 H         -1.758616   -3.568608   -0.036214
 H        -10.432068    3.602983    0.108615
 S          9.220343    1.100719   -0.007144
 C         10.739552    0.177554   -0.044195
 C         10.508007   -1.210649   -0.081351
 C          9.156165   -1.524746   -0.080085
 C          8.320079   -0.383202   -0.042172
 H         11.325311   -1.919684   -0.107373
 S          5.405714   -0.055661   -0.012963
 C          4.653904   -1.675592   -0.052352
 C          5.632148   -2.703870   -0.087327
 C          6.920352   -2.208591   -0.082928
 C          6.978265   -0.789194   -0.044059
 H          5.346005   -3.747244   -0.113824
 C         11.962168    0.910318   -0.032193
 C         13.272701    0.300243   -0.059561
 N         13.546273   -1.003563   -0.100250
 S         15.191117   -1.144219   -0.116244
 N         15.596750    0.454502   -0.071577
 C         14.453352    1.147177   -0.042896
 C         14.304982    2.576714    0.000356
 C         12.973539    3.014937    0.021869
 H         12.772842    4.084254    0.054049
 C          3.251222   -1.753890   -0.045480
 C          2.502020   -2.990892   -0.074325
 N          3.004780   -4.221855   -0.111638
 S          1.710109   -5.270049   -0.132987
 N          0.479329   -4.149563   -0.094832
 C          1.049573   -2.946269   -0.064226
 C          0.380092   -1.668755   -0.025602
 C          1.257667   -0.540999   -0.000840
 H          0.816821    0.454910    0.029249
 C          8.573229   -3.614193   -1.403502
 H          9.608768   -3.970190   -1.437908
 H          7.911261   -4.486316   -1.439588
 H          8.388603   -3.004353   -2.293187
 C          8.592041   -3.686297    1.131565
 H          7.931054   -4.559958    1.127238
 H          9.628161   -4.042330    1.130959
 H          8.419853   -3.128445    2.057136
 C          8.325912   -2.805861   -0.110035
 N         11.874471    2.251527    0.007169
 N          2.571405   -0.562574   -0.009361
 C         15.427292    3.494648    0.020308
 C         16.783613    3.218419    0.000520
 S         15.178673    5.242891    0.078096
 C         17.604437    4.378302    0.030613
 H         17.163090    2.206391   -0.034726
 C         16.885621    5.542588    0.073585
 H         18.688527    4.346858    0.020683
 H         17.251710    6.560193    0.102882
 C        -12.590100    1.690471    0.086581
 C        -13.553678    0.723779    0.296123
 S        -13.352901    3.250887   -0.191961
 C        -14.884305    1.224094    0.240168
 H        -13.313018   -0.314528    0.498953
 C        -14.937974    2.568559   -0.009415
 H        -15.764862    0.608197    0.385998
 H        -15.809365    3.203144   -0.098976
       135
S1: Total Energy = -6324.63385426
 C        -11.162849    1.535460    0.033018
 C        -10.195790    2.536952    0.047622
 C         -8.887346    2.027958    0.055542
 C         -8.836442    0.640057    0.039487
 C         -7.485919    0.163610    0.033689
 C         -6.641570    1.315503    0.024814
 C         -5.267538    1.176941    0.032901
 S        -10.416504   -0.073995    0.019351
 C         -7.476380    2.617947    0.033606
 H         -4.612317    2.042562    0.033378
 C         -1.052693   -1.505398    0.003538
 C         -2.028452   -2.505171   -0.002898
 C         -3.333031   -1.989544    0.007831
 C         -3.384965   -0.600930    0.027497
 C         -4.733900   -0.126887    0.040137
 C         -5.580280   -1.279603    0.050743
 C         -6.953428   -1.140010    0.041857
 S         -1.805925    0.112864    0.030814
 C         -4.744231   -2.580233    0.041483
 H         -7.608371   -2.006014    0.039791
 C         -7.329369    3.456235   -1.255174
 C         -7.825976    4.769083   -1.292419
 C         -7.785278    5.519599   -2.464684
 C         -7.247769    4.992692   -3.647867
 C         -6.762517    3.681503   -3.609610
 C         -6.802770    2.923900   -2.437052
 H         -8.240898    5.214309   -0.392733
 H         -8.177346    6.534381   -2.459466
 H         -6.344254    3.238841   -4.510801
 H         -6.419976    1.908919   -2.453702
 C         -7.125791    3.418236    1.305437
 C         -6.035359    4.301533    1.312232
 C         -5.657487    4.966135    2.477004
 C         -6.352572    4.780107    3.680045
 C         -7.435782    3.894496    3.670921
 C         -7.816219    3.223667    2.507349
 H         -5.479989    4.481498    0.396669
 H         -4.806899    5.643709    2.448869
 H         -7.994661    3.722669    4.588136
 H         -8.659240    2.540720    2.544630
 C         -5.103968   -3.386292   -1.223846
 C         -6.190544   -4.273597   -1.218628
 C         -6.575152   -4.944559   -2.378196
 C         -5.890038   -4.761006   -3.586689
 C         -4.809799   -3.870893   -3.589519
 C         -4.422953   -3.194276   -2.432084
 H         -6.736784   -4.453098   -0.297384
 H         -7.421876   -5.626624   -2.340725
 H         -4.257263   -3.702143   -4.511183
 H         -3.580288   -2.511562   -2.476649
 C         -4.883821   -3.414000    1.333819
 C         -4.365341   -4.718547    1.376863
 C         -4.400170   -5.466754    2.550125
 C         -4.952919   -4.946191    3.729565
 C         -5.460029   -3.644017    3.685661
 C         -5.425510   -2.888074    2.511254
 H         -3.933905   -5.156730    0.481690
 H         -3.988488   -6.473726    2.549770
 H         -5.889229   -3.205986    4.584053
 H         -5.823242   -1.878763    2.524349
 C         -7.175935    5.822128   -4.908189
 H         -6.313618    6.501740   -4.887980
 H         -7.073858    5.191240   -5.796930
 C         -5.958855    5.528775    4.931510
 H         -6.329953    5.027462    5.831162
 H         -4.870585    5.620424    5.017421
 C         -6.285136   -5.518711   -4.832367
 H         -7.361783   -5.718558   -4.855331
 H         -6.022161   -4.963718   -5.738953
 C         -5.010773   -5.772986    4.992434
 H         -5.208489   -5.149146    5.869858
 H         -5.806436   -6.527851    4.938617
 H         -8.071056    6.441785   -5.031531
 H         -6.369310    6.547354    4.931110
 H         -5.774039   -6.489321   -4.885687
 H         -4.070524   -6.309634    5.162595
 H         -1.760056   -3.552314   -0.013395
 H        -10.447562    3.591517    0.048640
 S          9.242941    1.092950    0.000098
 C         10.758794    0.170361   -0.048879
 C         10.527255   -1.208991   -0.094580
 C          9.165066   -1.522080   -0.090350
 C          8.341026   -0.386540   -0.041789
 H         11.342399   -1.920111   -0.128589
 S          5.419513   -0.060699    0.000226
 C          4.662224   -1.671344   -0.046691
 C          5.625231   -2.694408   -0.091776
 C          6.927082   -2.202201   -0.089121
 C          6.984834   -0.795657   -0.041353
 H          5.337490   -3.737348   -0.124190
 C         11.988809    0.909788   -0.035841
 C         13.294339    0.298656   -0.072925
 N         13.563641   -1.008738   -0.125034
 S         15.210450   -1.151187   -0.148566
 N         15.620990    0.449780   -0.092774
 C         14.476675    1.142748   -0.054221
 C         14.328554    2.571218    0.000964
 C         12.999723    3.011425    0.030680
 H         12.799602    4.080604    0.071834
 C          3.240940   -1.735618   -0.035227
 C          2.491855   -2.970154   -0.068531
 N          2.998279   -4.205243   -0.113202
 S          1.703581   -5.246001   -0.136781
 N          0.467869   -4.131740   -0.090834
 C          1.042930   -2.924091   -0.055438
 C          0.381516   -1.649047   -0.009985
 C          1.244991   -0.537209    0.019931
 H          0.812682    0.461879    0.057309
 C          8.573950   -3.601172   -1.425617
 H          9.609334   -3.957236   -1.467172
 H          7.911986   -4.473344   -1.465832
 H          8.385898   -2.984824   -2.310141
 C          8.602749   -3.690812    1.108274
 H          7.942194   -4.565002    1.101009
 H          9.638960   -4.046891    1.101825
 H          8.433991   -3.139121    2.038207
 C          8.331649   -2.801322   -0.125840
 N         11.898644    2.247229    0.014030
 N          2.576405   -0.557789    0.008850
 C         15.453578    3.487390    0.024473
 C         16.809179    3.209863   -0.003833
 S         15.208592    5.236190    0.100127
 C         17.632303    4.368479    0.033628
 H         17.185668    2.197167   -0.050240
 C         16.916733    5.533974    0.090932
 H         18.716435    4.334863    0.018564
 H         17.284833    6.550606    0.128286
 C        -12.594543    1.671521    0.027974
 C        -13.563296    0.681843    0.010867
 S        -13.356036    3.259132    0.043911
 C        -14.889634    1.185615    0.010152
 H        -13.325804   -0.376598   -0.001062
 C        -14.939226    2.555571    0.027029
 H        -15.772751    0.556858   -0.002452
 H        -15.810887    3.196133    0.030199
