        84
S0: Total Energy = -5718.44261954
 C        -13.103686    4.460349    0.169169
 S        -13.016146    2.746781    0.374513
 C        -11.931380    5.016307   -0.281566
 C        -11.326258    2.732728   -0.120393
 C        -10.926603    4.021665   -0.438200
 C        -11.729200    6.476784   -0.586717
 C        -10.442762    1.579012   -0.097701
 H         -9.928398    4.250120   -0.798130
 H        -11.464340    6.630989   -1.639905
 H        -12.636270    7.052723   -0.381206
 H        -10.917141    6.901312    0.015963
 C        -10.625822    0.197956   -0.218866
 S         -8.735290    1.929618    0.075748
 C         -9.405751   -0.535388   -0.207539
 C        -11.926374   -0.485092   -0.366555
 C         -8.272910    0.233658   -0.060852
 H         -9.373578   -1.609186   -0.305259
 O        -13.020487    0.009340   -0.153048
 O        -11.773289   -1.767618   -0.764266
 C         -6.888370   -0.209082   -0.004507
 C        -12.988288   -2.526356   -0.896729
 C         -6.490842   -1.599324   -0.075269
 C         -5.813953    0.649009    0.120100
 H        -13.521102   -2.567070    0.056622
 H        -13.637686   -2.079207   -1.653329
 H        -12.674172   -3.523857   -1.203447
 N         -7.330364   -2.627806   -0.195361
 C         -5.090295   -2.012025   -0.018228
 C         -4.455164    0.248881    0.174375
 F         -6.009388    1.978727    0.202161
 S         -6.429013   -3.998614   -0.233687
 N         -4.934758   -3.333415   -0.098546
 C         -4.010255   -1.056762    0.111502
 F         -3.577399    1.262870    0.294153
 C         -2.607408   -1.435315    0.170785
 C         -2.066390   -2.701292    0.136285
 S         -1.308216   -0.249377    0.284579
 C         -0.646142   -2.744708    0.202539
 H         -2.670770   -3.591646    0.061793
 C         -0.056236   -1.478651    0.312573
 C          0.077280   -4.029987    0.164284
 C          1.300730   -0.997177    0.470199
 O          1.277747   -4.167820   -0.005669
 O         -0.757014   -5.079330    0.327733
 C          1.635977    0.276402    0.911981
 S          2.766023   -1.865887    0.044209
 C         -0.142399   -6.378813    0.265478
 C          3.014120    0.583153    0.912495
 H          0.893257    0.986687    1.260110
 C          3.777003   -0.492963    0.459563
 H          0.338865   -6.529223   -0.704134
 H          0.601824   -6.487998    1.058131
 H         -0.956385   -7.090038    0.404042
 C          3.538486    1.914591    1.382787
 C          5.209367   -0.640242    0.326310
 H          4.339746    1.801524    2.121573
 H          3.942232    2.510070    0.554594
 H          2.735764    2.497206    1.844233
 C          5.920742   -1.818263    0.153483
 S          6.308598    0.726470    0.312175
 C          7.309511   -1.636867    0.014243
 H          5.450063   -2.795255    0.141800
 C          7.715584   -0.311430    0.075054
 H          8.008924   -2.449362   -0.119184
 C          9.065239    0.217871   -0.021777
 C         10.238801   -0.611987   -0.203629
 C          9.372408    1.563200    0.044401
 N         10.224575   -1.941461   -0.298572
 C         11.584834   -0.048659   -0.301211
 C         10.677597    2.108074   -0.050127
 F          8.396834    2.477002    0.210752
 S         11.776193   -2.439520   -0.494491
 N         12.525267   -0.979693   -0.465692
 C         11.834730    1.375175   -0.223563
 F         10.728067    3.450619    0.042267
 C         13.163212    1.965673   -0.318347
 C         14.375902    1.318375   -0.485129
 S         13.433711    3.710702   -0.229167
 C         15.491484    2.194950   -0.540074
 H         14.450242    0.243482   -0.564751
 C         15.139731    3.512309   -0.416328
 H         16.513703    1.855767   -0.666635
 H         15.782824    4.382613   -0.423530
 H        -14.040560    4.970250    0.358001
        84
T1: Total Energy = -5718.39932555
 C        -13.204277    4.345854    0.231448
 S        -13.070052    2.651809    0.544771
 C        -12.061618    4.895685   -0.296833
 C        -11.398521    2.639486   -0.012365
 C        -11.041213    3.914071   -0.427318
 C        -11.903523    6.337528   -0.700696
 C        -10.490147    1.507992    0.041085
 H        -10.062915    4.139740   -0.839691
 H        -11.676226    6.429375   -1.769812
 H        -12.816697    6.906095   -0.501804
 H        -11.082674    6.816962   -0.153661
 C        -10.648211    0.117068    0.035577
 S         -8.782006    1.900939    0.076642
 C         -9.415501   -0.591031    0.020342
 C        -11.938931   -0.600096    0.031290
 C         -8.289658    0.206866    0.035199
 H         -9.364408   -1.668262   -0.000265
 O        -13.027281   -0.111936    0.285522
 O        -11.783129   -1.905771   -0.279775
 C         -6.900358   -0.206567    0.031824
 C        -12.985060   -2.696079   -0.266764
 C         -6.479833   -1.591526    0.014126
 C         -5.833653    0.682908    0.043849
 H        -13.445464   -2.678171    0.724294
 H        -13.699192   -2.318310   -1.002582
 H        -12.669010   -3.706785   -0.524301
 N         -7.304486   -2.638395    0.001985
 C         -5.069123   -1.977089    0.007740
 C         -4.476088    0.315976    0.038194
 F         -6.062186    2.011322    0.063690
 S         -6.379487   -3.998463   -0.016205
 N         -4.890849   -3.296142   -0.009174
 C         -4.002840   -0.993609    0.019191
 F         -3.607184    1.346352    0.051853
 C         -2.604247   -1.333886    0.011823
 C         -2.037483   -2.604586   -0.008439
 S         -1.322218   -0.125174    0.027261
 C         -0.632538   -2.635226   -0.012199
 H         -2.638869   -3.499811   -0.020442
 C         -0.035259   -1.345237    0.005948
 C          0.091661   -3.920499   -0.033554
 C          1.296399   -0.857965    0.010315
 O          1.305292   -4.053728   -0.038404
 O         -0.750261   -4.974329   -0.047957
 C          1.634241    0.519495    0.030980
 S          2.781193   -1.811254   -0.008301
 C         -0.126711   -6.271128   -0.069478
 C          2.983314    0.824213    0.032433
 H          0.877621    1.296329    0.044980
 C          3.792083   -0.350901    0.011793
 H          0.490679   -6.383692   -0.964018
 H          0.494637   -6.411383    0.818377
 H         -0.949173   -6.985846   -0.078740
 C          3.493376    2.238512    0.054090
 C          5.187725   -0.497187    0.005588
 H          4.112836    2.433632    0.937253
 H          4.103509    2.464167   -0.828336
 H          2.656688    2.942236    0.070716
 C          5.907914   -1.719230   -0.013788
 S          6.333030    0.854333    0.020251
 C          7.279063   -1.580080   -0.016733
 H          5.412741   -2.683873   -0.025103
 C          7.731346   -0.236188   -0.000009
 H          7.973321   -2.407352   -0.030479
 C          9.074191    0.224298    0.000896
 C         10.231439   -0.657782   -0.016229
 C          9.428704    1.591006    0.018283
 N         10.176090   -1.985074   -0.034218
 C         11.599997   -0.138423   -0.014972
 C         10.731514    2.075887    0.019219
 F          8.457872    2.527381    0.035423
 S         11.731186   -2.550938   -0.048723
 N         12.522008   -1.100172   -0.032179
 C         11.887421    1.280708    0.003224
 F         10.846768    3.420328    0.037167
 C         13.226229    1.821728    0.004743
 C         14.432013    1.125958   -0.010570
 S         13.557589    3.563635    0.027687
 C         15.575878    1.959647   -0.004059
 H         14.469521    0.046594   -0.025930
 C         15.264288    3.295369    0.016122
 H         16.592376    1.581946   -0.014012
 H         15.939897    4.140722    0.024928
 H        -14.144698    4.848002    0.423434
        84
S1: Total Energy = -5718.38245511
 C        -13.213472    4.334030    0.202644
 S        -13.080857    2.635748    0.493913
 C        -12.054405    4.899537   -0.272935
 C        -11.387522    2.640229   -0.004623
 C        -11.025222    3.927045   -0.384052
 C        -11.890265    6.349721   -0.642969
 C        -10.477641    1.514504    0.048299
 H        -10.034885    4.166430   -0.757793
 H        -11.621064    6.463200   -1.700239
 H        -12.814407    6.909037   -0.470012
 H        -11.094889    6.823465   -0.054817
 C        -10.629694    0.119375    0.059263
 S         -8.766358    1.909909    0.056831
 C         -9.399267   -0.585506    0.038132
 C        -11.917254   -0.602798    0.081486
 C         -8.268740    0.214438    0.031338
 H         -9.339860   -1.662406    0.030228
 O        -13.006672   -0.113324    0.331473
 O        -11.760360   -1.915103   -0.198183
 C         -6.885848   -0.199239    0.020579
 C        -12.958987   -2.708310   -0.155233
 C         -6.477265   -1.585136    0.012520
 C         -5.815766    0.706401    0.016754
 H        -13.410293   -2.668829    0.839493
 H        -13.681732   -2.350514   -0.892760
 H        -12.641891   -3.723802   -0.391842
 N         -7.314570   -2.627622    0.014367
 C         -5.068557   -1.971964    0.000347
 C         -4.473885    0.338104    0.006648
 F         -6.058503    2.038039    0.025613
 S         -6.383848   -4.004596    0.001169
 N         -4.878322   -3.294943   -0.007117
 C         -4.014214   -0.986185   -0.002471
 F         -3.583982    1.356600    0.005868
 C         -2.612982   -1.332354   -0.012617
 C         -2.050530   -2.605647   -0.027835
 S         -1.329914   -0.131546   -0.005370
 C         -0.641930   -2.633000   -0.033669
 H         -2.659203   -3.495765   -0.034289
 C         -0.049256   -1.350759   -0.022053
 C          0.088555   -3.918052   -0.051657
 C          1.292928   -0.856989   -0.019472
 O          1.303391   -4.041872   -0.059235
 O         -0.746696   -4.972513   -0.059740
 C          1.627631    0.511641   -0.005108
 S          2.767959   -1.812695   -0.030608
 C         -0.120788   -6.268939   -0.078414
 C          2.987840    0.810461   -0.001942
 H          0.874825    1.291693    0.003396
 C          3.778681   -0.362808   -0.014468
 H          0.493772   -6.382570   -0.974693
 H          0.503033   -6.403821    0.808461
 H         -0.942359   -6.984385   -0.082670
 C          3.501540    2.223174    0.013606
 C          5.187836   -0.522527   -0.015174
 H          4.116954    2.421820    0.898965
 H          4.116344    2.441587   -0.867530
 H          2.667232    2.929451    0.021862
 C          5.896360   -1.737466   -0.027442
 S          6.325666    0.822708    0.000842
 C          7.278814   -1.594432   -0.023839
 H          5.403530   -2.703043   -0.038453
 C          7.717506   -0.261434   -0.008561
 H          7.971772   -2.422927   -0.031700
 C          9.073935    0.215953   -0.000299
 C         10.232957   -0.657005   -0.007137
 C          9.414797    1.567211    0.015803
 N         10.185771   -1.987553   -0.022797
 C         11.596644   -0.132748    0.003144
 C         10.727785    2.067643    0.025560
 F          8.448459    2.503650    0.023633
 S         11.737256   -2.537723   -0.024528
 N         12.521928   -1.093515   -0.005266
 C         11.878932    1.287404    0.020411
 F         10.821083    3.410977    0.041256
 C         13.219231    1.836508    0.031342
 C         14.426215    1.147401    0.027208
 S         13.536797    3.578520    0.053100
 C         15.565037    1.988172    0.041049
 H         14.472391    0.068206    0.014495
 C         15.242767    3.321700    0.055787
 H         16.584062    1.617795    0.040079
 H         15.912465    4.171761    0.068161
 H        -14.162490    4.828824    0.370206
