       149
S0: Total Energy = -10022.0253460
 C        -10.110395   -0.958955   -0.232260
 C        -10.484308    0.197929    0.395870
 C        -11.896889    0.315292    0.617115
 C        -12.603773   -0.824901    0.133788
 S        -11.502587   -1.993097   -0.593340
 H         -9.773752    0.953418    0.708802
 C        -12.596888    1.358707    1.269897
 C        -13.984983   -0.994867    0.276155
 C        -13.980904    1.188840    1.411878
 C        -14.686299    0.047977    0.929015
 C        -16.105867    0.165400    1.152465
 C        -16.453426    1.320174    1.774072
 S        -15.090098    2.354147    2.134293
 H        -16.824509   -0.584201    0.846151
 C        -11.925529    2.565315    1.780938
 C        -11.984497    3.094487    3.045854
 C        -11.244371    4.303113    3.153671
 C        -10.620009    4.731701    2.016833
 S        -10.956382    3.596670    0.732234
 H        -12.510688    2.640166    3.876659
 C        -14.655169   -2.203881   -0.233325
 C        -14.611946   -2.724875   -1.502137
 C        -15.345710   -3.938069   -1.605474
 C        -15.949866   -4.376829   -0.461712
 S        -15.601497   -3.246397    0.823891
 H        -14.101604   -2.262140   -2.338276
 F        -11.162648    4.975370    4.321174
 F        -15.440593   -4.604573   -2.775582
 C         -8.780410   -1.389123   -0.602529
 C         -8.396870   -2.539487   -1.247441
 S         -7.371042   -0.418489   -0.227585
 C         -6.991202   -2.659755   -1.454615
 H         -9.093136   -3.300727   -1.575541
 C         -6.268206   -1.564270   -0.976559
 C         -6.416606   -3.842888   -2.130964
 O         -5.238997   -4.155838   -2.143115
 O         -7.372764   -4.574133   -2.741552
 C         -6.917186   -5.772470   -3.396721
 H         -7.812629   -6.230082   -3.816399
 H         -6.204119   -5.526793   -4.187233
 H         -6.442004   -6.444018   -2.677547
 H        -17.447986    1.644146    2.052290
 C        -16.782245   -5.606571   -0.271759
 H        -17.798772   -5.364408    0.059673
 H        -16.853759   -6.141705   -1.222797
 H        -16.344184   -6.286372    0.468365
 C         -9.776107    5.954488    1.833370
 H         -9.719171    6.496331    2.781562
 H         -8.754955    5.703125    1.523689
 H        -10.195578    6.631472    1.079996
 C         -4.866848   -1.172905   -0.996006
 C         -4.436054    0.131358   -0.905730
 S         -3.499553   -2.302087   -1.001744
 C         -3.019834    0.285717   -0.814193
 H         -5.117958    0.972374   -0.905197
 C         -2.358717   -0.976217   -0.822627
 C         -2.275364    1.486522   -0.678311
 C         -0.970033   -1.114533   -0.689861
 C         -0.893047    1.343949   -0.536113
 C         -2.906020    2.816808   -0.683348
 C         -0.226110    0.081513   -0.543883
 C         -0.336000   -2.444139   -0.700533
 S          0.259682    2.669793   -0.392969
 C         -2.784567    3.815488    0.250310
 S         -3.904789    3.356628   -2.029821
 C          1.196057    0.232492   -0.446171
 C         -0.450527   -3.428918   -1.649178
 S          0.659746   -3.001394    0.641608
 C          1.617277    1.532289   -0.358476
 C         -3.501372    4.984524   -0.123619
 H         -2.230542    3.725095    1.176870
 C         -4.167854    4.928361   -1.314741
 H          1.879351   -0.608129   -0.453422
 C          0.269827   -4.600803   -1.291072
 H         -1.005739   -3.328769   -2.573922
 C          0.932230   -4.560777   -0.097171
 C          2.969408    2.031919   -0.250789
 F         -3.522788    6.078797    0.666516
 C         -4.998709    5.994825   -1.957850
 F          0.298684   -5.682162   -2.097941
 C          1.766422   -5.633583    0.530763
 C          3.398860    3.332014   -0.138033
 S          4.347006    0.949419   -0.268720
 H         -6.035068    5.670272   -2.107606
 H         -5.008825    6.878840   -1.314110
 H         -4.598689    6.290710   -2.934654
 H          1.777331   -6.508873   -0.124727
 H          2.802682   -5.309277    0.682060
 H          1.368592   -5.943311    1.504203
 C          4.814401    3.481487   -0.059880
 H          2.729189    4.182190   -0.110294
 C          5.499252    2.264355   -0.090967
 C          5.437279    4.817559    0.060466
 O          6.615451    5.073435   -0.115586
 O          4.525182    5.759306    0.381601
 C          5.028450    7.104367    0.483729
 H          4.162827    7.718340    0.730904
 H          5.783542    7.169689    1.270758
 H          5.467597    7.421234   -0.465303
 C          6.895591    1.870874    0.022566
 C          7.307910    0.632160    0.458217
 S          8.271348    2.857635   -0.504670
 C          8.715572    0.408847    0.371449
 H          6.618765   -0.111818    0.837564
 C          9.387548    1.539805   -0.175113
 C          9.440286   -0.763747    0.709647
 C         10.767652    1.566152   -0.420538
 C         10.813625   -0.736955    0.454273
 C          8.798993   -1.951888    1.296303
 C         11.490807    0.393595   -0.094486
 C         11.413434    2.759206   -0.994612
 S         11.945377   -2.040880    0.811351
 C          8.861098   -3.251492    0.859136
 S          7.869366   -1.852728    2.788996
 C         12.905511    0.173529   -0.182813
 C         11.361447    4.052882   -0.539979
 S         12.336927    2.674397   -2.492293
 C         13.309306   -1.057292    0.256841
 C          8.155201   -4.136982    1.718189
 H          9.364513   -3.571372   -0.045263
 C          7.554331   -3.570704    2.806494
 H         13.598140    0.926191   -0.539450
 C         12.071046    4.945269   -1.388888
 H         10.858193    4.365085    0.367082
 C         12.664606    4.390255   -2.486838
 C         14.651941   -1.598254    0.309028
 F          8.081598   -5.459406    1.457638
 C          6.749551   -4.247596    3.872056
 F         12.155068    6.263205   -1.110175
 C         13.470843    5.076573   -3.545200
 C         15.098570   -2.738296    0.936253
 S         15.990221   -0.785936   -0.501317
 H          5.725591   -3.858912    3.919187
 H          6.697122   -5.318428    3.656339
 H          7.198378   -4.122696    4.864380
 H         13.530563    6.143923   -3.314675
 H         14.492435    4.682643   -3.600304
 H         13.018514    4.968373   -4.537918
 C         16.500994   -2.959280    0.777290
 H         14.456877   -3.399098    1.506272
 C         17.109845   -1.980905    0.027587
 C         17.274805   -4.091038    1.335318
 H         18.157286   -1.917780   -0.232670
 O         18.472124   -4.252157    1.183430
 O         16.490009   -4.932761    2.039991
 C         17.158412   -6.066388    2.622707
 H         16.382398   -6.622953    3.147662
 H         17.613396   -6.683212    1.843758
 H         17.932858   -5.736262    3.319435
       149
T1: Total Energy = -10021.9724908
 C        -10.128477   -0.993878   -0.095631
 C        -10.535858    0.307612   -0.221184
 C        -11.951441    0.465038   -0.387641
 C        -12.629038   -0.789933   -0.369061
 S        -11.491292   -2.122728   -0.180767
 H         -9.850296    1.144803   -0.170048
 C        -12.690708    1.667713   -0.500409
 C        -14.019867   -0.917612   -0.444446
 C        -14.084206    1.539612   -0.577336
 C        -14.760161    0.284540   -0.557888
 C        -16.184125    0.443861   -0.716990
 C        -16.564511    1.740405   -0.840382
 S        -15.228621    2.866643   -0.776026
 H        -16.879968   -0.385028   -0.746964
 C        -12.048231    2.991733   -0.537780
 C        -12.315153    4.084876    0.248039
 C        -11.527108    5.209726   -0.117615
 C        -10.664999    5.028477   -1.161660
 S        -10.823466    3.387904   -1.740038
 H        -13.023681    4.092893    1.067449
 C        -14.661400   -2.243204   -0.405114
 C        -14.410118   -3.329845   -1.204627
 C        -15.192667   -4.457130   -0.833276
 C        -16.035571   -4.283217    0.227370
 S        -15.864468   -2.647043    0.815373
 H        -13.717255   -3.331704   -2.037488
 F        -11.626953    6.382588    0.542738
 F        -15.105612   -5.625011   -1.504643
 C         -8.788019   -1.498962    0.086141
 C         -8.384435   -2.777070    0.390563
 S         -7.390491   -0.457921   -0.092315
 C         -6.974966   -2.943339    0.497796
 H         -9.073189   -3.597175    0.547843
 C         -6.258501   -1.754659    0.291068
 C         -6.390308   -4.263063    0.811124
 O         -5.210783   -4.560371    0.725943
 O         -7.335845   -5.144645    1.199773
 C         -6.866550   -6.474229    1.489728
 H         -7.754794   -7.038035    1.773509
 H         -6.396507   -6.914551    0.606929
 H         -6.145589   -6.453532    2.310436
 H        -17.569126    2.121905   -0.969541
 C        -16.972654   -5.280706    0.834155
 H        -18.014844   -4.944232    0.784840
 H        -16.894594   -6.224846    0.287842
 H        -16.735778   -5.476477    1.886464
 C         -9.717640    6.022299   -1.757955
 H         -9.818034    6.975041   -1.230612
 H         -8.674701    5.694239   -1.672358
 H         -9.923918    6.198119   -2.820095
 C         -4.862921   -1.379160    0.351362
 C         -4.423672   -0.066841    0.439729
 S         -3.489156   -2.495475    0.239762
 C         -3.017849    0.097732    0.393725
 H         -5.103210    0.766263    0.568306
 C         -2.347130   -1.155984    0.281081
 C         -2.270273    1.310598    0.507561
 C         -0.953740   -1.283259    0.292066
 C         -0.887260    1.184598    0.513434
 C         -2.917185    2.628169    0.611020
 C         -0.203194   -0.072997    0.397719
 C         -0.312010   -2.600950    0.197770
 S          0.256750    2.527130    0.591056
 C         -2.722292    3.594388    1.566186
 S         -4.044100    3.200706   -0.616531
 C          1.200378    0.089775    0.345656
 C         -0.564877   -3.602640   -0.707834
 S          0.884009   -3.136010    1.378565
 C          1.633837    1.413233    0.438010
 C         -3.484761    4.764909    1.304213
 H         -2.083881    3.479026    2.433829
 C         -4.258378    4.741212    0.178613
 H          1.890769   -0.734447    0.216137
 C          0.207758   -4.765357   -0.448346
 H         -1.251926   -3.517514   -1.540795
 C          1.045283   -4.704947    0.629824
 C          2.958193    1.895077    0.417981
 F         -3.445992    5.829212    2.133119
 C         -5.158795    5.817021   -0.343504
 F          0.119575   -5.858492   -1.234034
 C          1.971326   -5.765900    1.136262
 C          3.391393    3.229816    0.466017
 S          4.351569    0.816366    0.326441
 H         -6.200347    5.480403   -0.409607
 H         -5.122406    6.675454    0.332981
 H         -4.854431    6.156629   -1.340395
 H          1.874314   -6.656398    0.509065
 H          3.018594   -5.441520    1.106142
 H          1.741269   -6.050446    2.169523
 C          4.768803    3.415865    0.425576
 H          2.701062    4.061575    0.526629
 C          5.516212    2.182421    0.334119
 C          5.346107    4.770400    0.477205
 O          6.536847    5.038115    0.497547
 O          4.390448    5.726383    0.506076
 C          4.868623    7.081612    0.567666
 H          3.973323    7.702867    0.580784
 H          5.458659    7.239205    1.473948
 H          5.482718    7.311075   -0.306634
 C          6.874595    1.846126    0.244160
 C          7.342235    0.508962    0.111047
 S          8.261599    2.965355    0.277280
 C          8.733354    0.360542    0.051606
 H          6.662443   -0.328053    0.021997
 C          9.405947    1.626752    0.106690
 C          9.487091   -0.849416   -0.116175
 C         10.780729    1.765437   -0.022114
 C         10.869996   -0.700497   -0.244638
 C          8.857449   -2.172516   -0.145628
 C         11.537486    0.559230   -0.193554
 C         11.423642    3.088350    0.020473
 S         12.031707   -2.018862   -0.401566
 C          9.067797   -3.191928   -1.044063
 S          7.742785   -2.697541    1.118027
 C         12.949273    0.418200   -0.260746
 C         11.292042    4.063776    0.977053
 S         12.454703    3.655883   -1.291981
 C         13.385394   -0.884880   -0.377291
 C          8.330696   -4.358534   -0.711633
 H          9.694206   -3.114284   -1.924296
 C          7.560610   -4.284931    0.415299
 H         13.630416    1.258646   -0.204108
 C         12.025137    5.236006    0.648743
 H         10.715720    3.955393    1.887785
 C         12.715322    5.205806   -0.529746
 C         14.739349   -1.370705   -0.472788
 F          8.386151   -5.467768   -1.477588
 C          6.683302   -5.345952    1.001820
 F         12.040732    6.308138    1.468308
 C         13.568032    6.281663   -1.126689
 C         15.190103   -2.673498   -0.514125
 S         16.104725   -0.254817   -0.557888
 H          5.635565   -5.025714    1.051140
 H          6.736002   -6.241993    0.377266
 H          6.994861   -5.619318    2.016659
 H         13.573053    7.147367   -0.458507
 H         14.604424    5.951929   -1.264742
 H         13.189889    6.608077   -2.102533
 C         16.609389   -2.778497   -0.609855
 H         14.535600   -3.535595   -0.473026
 C         17.232360   -1.552269   -0.640443
 C         17.388710   -4.035877   -0.671667
 H         18.294758   -1.363735   -0.708120
 O         18.602319   -4.093863   -0.750384
 O         16.588410   -5.121279   -0.630786
 C         17.260219   -6.393014   -0.686728
 H         16.469475   -7.141453   -0.641287
 H         17.824286   -6.485932   -1.618058
 H         17.942017   -6.502098    0.160280
       149
S1: Total Energy = -10021.9531842
 C        -10.133662   -0.996994   -0.074161
 C        -10.563225    0.311572   -0.046453
 C        -11.982179    0.464306   -0.081018
 C        -12.652343   -0.797659   -0.121880
 S        -11.497438   -2.129124   -0.148722
 H         -9.879301    1.148463    0.025434
 C        -12.738181    1.665284   -0.020959
 C        -14.041203   -0.935755   -0.092198
 C        -14.132352    1.524291    0.008480
 C        -14.797017    0.263789   -0.031924
 C        -16.228187    0.415766   -0.059472
 C        -16.627736    1.713578   -0.032707
 S        -15.299667    2.847429    0.024352
 H        -16.918409   -0.416912   -0.108712
 C        -12.111829    2.994856    0.008447
 C        -12.348084    4.022075    0.888889
 C        -11.599487    5.185250    0.565791
 C        -10.797058    5.099300   -0.536871
 S        -10.962932    3.503961   -1.227657
 H        -13.006016    3.955225    1.746799
 C        -14.671168   -2.266930   -0.122951
 C        -14.483361   -3.271665   -1.038650
 C        -15.226846   -4.437979   -0.710332
 C        -15.978317   -4.373520    0.428476
 S        -15.765764   -2.796949    1.150552
 H        -13.862938   -3.187859   -1.922820
 F        -11.677660    6.303184    1.317465
 F        -15.191640   -5.537349   -1.492878
 C         -8.789968   -1.492589   -0.046216
 C         -8.359195   -2.803418    0.029068
 S         -7.406638   -0.412955   -0.111860
 C         -6.956172   -2.973073    0.048449
 H         -9.037914   -3.645082    0.079906
 C         -6.240334   -1.749283   -0.006931
 C         -6.366059   -4.319635    0.128390
 O         -5.174032   -4.584264    0.108357
 O         -7.315240   -5.278501    0.225070
 C         -6.828824   -6.629956    0.295927
 H         -7.719638   -7.254097    0.364341
 H         -6.253838   -6.878038   -0.599772
 H         -6.197395   -6.764150    1.177706
 H        -17.642443    2.089946   -0.043954
 C        -16.856242   -5.434618    1.015471
 H        -17.899857   -5.106916    1.088068
 H        -16.822597   -6.321829    0.376978
 H        -16.528566   -5.726471    2.020088
 C         -9.903019    6.154144   -1.109529
 H         -9.985474    7.061717   -0.505104
 H         -8.851872    5.841442   -1.111110
 H        -10.175955    6.406054   -2.140869
 C         -4.860413   -1.381064    0.009899
 C         -4.411250   -0.053867    0.042800
 S         -3.475353   -2.493130   -0.031081
 C         -3.017218    0.111867    0.013924
 H         -5.092407    0.783883    0.119154
 C         -2.335069   -1.146485   -0.015332
 C         -2.271507    1.338637    0.079390
 C         -0.948230   -1.267224    0.043655
 C         -0.890299    1.215811    0.136072
 C         -2.922433    2.653838    0.083053
 C         -0.198627   -0.043161    0.108028
 C         -0.297235   -2.580969    0.040836
 S          0.253422    2.561745    0.164716
 C         -2.702016    3.706139    0.938959
 S         -4.084233    3.114838   -1.161884
 C          1.200271    0.121456    0.076904
 C         -0.544002   -3.647807   -0.790822
 S          0.900511   -3.025947    1.259458
 C          1.630176    1.448149    0.106659
 C         -3.469613    4.848595    0.589991
 H         -2.045119    3.669427    1.799495
 C         -4.273141    4.722775   -0.508391
 H          1.895693   -0.705460    0.003008
 C          0.231564   -4.784982   -0.446836
 H         -1.228058   -3.625536   -1.630112
 C          1.066938   -4.643866    0.626480
 C          2.958833    1.937409    0.093105
 F         -3.409653    5.984736    1.315154
 C         -5.187217    5.747727   -1.102870
 F          0.150637   -5.931972   -1.151602
 C          1.994401   -5.662644    1.209996
 C          3.391736    3.260599    0.055244
 S          4.352225    0.860894    0.133861
 H         -6.230449    5.409468   -1.105184
 H         -5.129026    6.666696   -0.513072
 H         -4.914108    5.988734   -2.136801
 H          1.904664   -6.595186    0.646072
 H          3.040413   -5.335837    1.163569
 H          1.760024   -5.875329    2.259504
 C          4.785328    3.432553    0.046055
 H          2.709351    4.100257    0.026783
 C          5.511579    2.207925    0.069283
 C          5.370412    4.787033    0.005442
 O          6.558940    5.055567    0.063074
 O          4.419152    5.740970   -0.099585
 C          4.898502    7.097172   -0.128675
 H          4.005674    7.716800   -0.209395
 H          5.446274    7.329459    0.787955
 H          5.553371    7.252824   -0.989437
 C          6.891240    1.849845    0.044129
 C          7.347684    0.529615   -0.057206
 S          8.270804    2.967768    0.170231
 C          8.746398    0.369578   -0.015588
 H          6.672124   -0.304407   -0.197098
 C          9.416335    1.629915    0.095498
 C          9.502972   -0.840954   -0.134287
 C         10.803471    1.762960    0.073127
 C         10.891273   -0.698636   -0.153892
 C          8.872462   -2.160893   -0.225174
 C         11.560153    0.559192   -0.044220
 C         11.443803    3.084056    0.169810
 S         12.055896   -2.023172   -0.229483
 C          9.150599   -3.173769   -1.113013
 S          7.658030   -2.692534    0.940516
 C         12.975566    0.407485   -0.000409
 C         11.230716    4.062844    1.108543
 S         12.589021    3.645114   -1.047046
 C         13.409719   -0.895381   -0.088787
 C          8.385114   -4.339658   -0.851576
 H          9.845461   -3.091095   -1.939814
 C          7.527057   -4.272763    0.210863
 H         13.655055    1.242693    0.118695
 C         11.994631    5.231336    0.844398
 H         10.576179    3.958868    1.965313
 C         12.786751    5.195806   -0.268174
 C         14.763870   -1.390549   -0.077052
 F          8.497462   -5.442338   -1.620380
 C          6.601662   -5.335341    0.714202
 F         11.941275    6.305498    1.659592
 C         13.693103    6.267115   -0.789340
 C         15.207553   -2.696122   -0.041755
 S         16.139435   -0.284407   -0.111799
 H          5.553594   -5.014777    0.671840
 H          6.708501   -6.229130    0.093374
 H          6.822686   -5.612434    1.751528
 H         13.644654    7.133210   -0.123428
 H         14.735847    5.932049   -0.837223
 H         13.402450    6.594755   -1.794335
 C         16.629017   -2.810511   -0.037717
 H         14.545854   -3.553159   -0.011166
 C         17.261020   -1.588555   -0.070247
 C         17.402835   -4.072277    0.000548
 H         18.326891   -1.407465   -0.072484
 O         18.618627   -4.137387    0.004969
 O         16.594945   -5.152295    0.030232
 C         17.261037   -6.427726    0.069295
 H         16.464331   -7.170921    0.089461
 H         17.886679   -6.558840   -0.817016
 H         17.882792   -6.506250    0.964519
