        60
S0: Total Energy = -2438.24124913
 N          1.232914   -1.748137    0.000434
 C         -0.198525   -1.788022    0.000496
 C         -0.588167   -0.397263    0.000196
 C         -1.710189    0.438745    0.000064
 N         -1.232913    1.748125   -0.000360
 C          0.198526    1.788009   -0.000373
 C          0.588168    0.397250   -0.000093
 C          1.710190   -0.438757    0.000012
 O         -0.832526   -2.844133    0.000745
 O          0.832528    2.844120   -0.000658
 C          3.087681   -0.036856    0.000027
 C          3.529258    1.283414    0.000197
 C          4.929036    1.414060    0.000095
 C          5.596806    0.200492   -0.000015
 S          4.471624   -1.133353   -0.000092
 H          2.834432    2.117198    0.000220
 H          5.449669    2.363896    0.000277
 C         -3.087681    0.036847    0.000025
 C         -3.529263   -1.283422   -0.000143
 C         -4.929041   -1.414063   -0.000069
 C         -5.596807   -0.200492    0.000018
 S         -4.471620    1.133348    0.000107
 H         -2.834439   -2.117208   -0.000145
 H         -5.449677   -2.363897   -0.000253
 C          7.016925   -0.018181   -0.000073
 C          7.794903   -1.146337   -0.000524
 C          9.160209   -0.704861   -0.000357
 C         10.419431   -1.329210   -0.000593
 C         11.554971   -0.525267   -0.000272
 C         11.459124    0.880577    0.000277
 C         10.221125    1.524117    0.000522
 C          9.100716    0.703727    0.000192
 O          7.797955    1.124119    0.000368
 H          7.437144   -2.166915   -0.000955
 H         10.502947   -2.412109   -0.001015
 H         12.537725   -0.988027   -0.000446
 H         12.366851    1.476836    0.000517
 H         10.131606    2.605293    0.000946
 C         -7.016925    0.018185    0.000046
 C         -7.794899    1.146344    0.000472
 C         -9.160206    0.704872    0.000282
 C        -10.419427    1.329226    0.000489
 C        -11.554969    0.525286    0.000152
 C        -11.459127   -0.880558   -0.000384
 C        -10.221130   -1.524102   -0.000600
 C         -9.100718   -0.703716   -0.000255
 O         -7.797959   -1.124112   -0.000402
 H         -7.437136    2.166921    0.000903
 H        -10.502939    2.412125    0.000900
 H        -12.537722    0.988050    0.000303
 H        -12.366856   -1.476814   -0.000637
 H        -10.131615   -2.605278   -0.001014
 C          1.987324   -2.990175    0.000320
 C         -1.987324    2.990162   -0.000281
 H         -2.611254    3.079981    0.894239
 H         -1.249506    3.794081    0.000222
 H         -2.610614    3.080541   -0.895211
 H          1.249506   -3.794093   -0.000164
 H          2.611226   -3.079988   -0.894221
 H          2.610644   -3.080560    0.895229
        60
T1: Total Energy = -2438.20868875
 N         -1.235309    1.764400   -0.000211
 C          0.181550    1.791948   -0.000170
 C          0.572811    0.387555   -0.000072
 C          1.737405   -0.464536    0.000050
 N          1.235309   -1.764404    0.000078
 C         -0.181550   -1.791951   -0.000037
 C         -0.572811   -0.387558   -0.000108
 C         -1.737405    0.464532   -0.000189
 O          0.834908    2.837312   -0.000145
 O         -0.834908   -2.837316   -0.000014
 C         -3.083333    0.064776   -0.000165
 C         -3.533513   -1.273943   -0.000163
 C         -4.919712   -1.405103   -0.000115
 C         -5.604191   -0.189593   -0.000079
 S         -4.482585    1.159538   -0.000102
 H         -2.836279   -2.104819   -0.000185
 H         -5.437849   -2.356631   -0.000108
 C          3.083333   -0.064779    0.000065
 C          3.533512    1.273940    0.000041
 C          4.919711    1.405103    0.000038
 C          5.604191    0.189592    0.000060
 S          4.482586   -1.159539    0.000076
 H          2.836277    2.104816    0.000015
 H          5.437847    2.356631    0.000024
 C         -7.015332    0.016708   -0.000020
 C         -7.802650    1.145387   -0.000020
 C         -9.163389    0.699036    0.000060
 C        -10.425696    1.318955    0.000102
 C        -11.558545    0.511332    0.000183
 C        -11.458117   -0.894076    0.000221
 C        -10.217165   -1.533707    0.000180
 C         -9.099615   -0.710720    0.000101
 O         -7.795980   -1.128260    0.000052
 H         -7.448130    2.167022   -0.000075
 H        -10.512681    2.401569    0.000073
 H        -12.542820    0.970889    0.000217
 H        -12.363737   -1.493512    0.000283
 H        -10.124404   -2.614618    0.000208
 C          7.015332   -0.016707    0.000062
 C          7.802651   -1.145386    0.000123
 C          9.163389   -0.699033    0.000089
 C         10.425697   -1.318951    0.000116
 C         11.558546   -0.511327    0.000064
 C         11.458117    0.894081   -0.000014
 C         10.217164    1.533711   -0.000043
 C          9.099614    0.710723    0.000010
 O          7.795979    1.128262   -0.000007
 H          7.448132   -2.167020    0.000188
 H         10.512683   -2.401564    0.000176
 H         12.542821   -0.970883    0.000084
 H         12.363736    1.493518   -0.000053
 H         10.124402    2.614622   -0.000103
 C         -1.981811    3.012828   -0.000364
 C          1.981811   -3.012832    0.000284
 H          2.605269   -3.101211    0.894795
 H          1.242191   -3.814476    0.000476
 H          2.605184   -3.101577   -0.894254
 H         -1.242191    3.814473   -0.000590
 H         -2.605318    3.101214   -0.894841
 H         -2.605136    3.101566    0.894209
        60
S1: Total Energy = -2438.17161217
 N         -1.232680    1.758393   -0.000049
 C          0.194865    1.788163    0.000073
 C          0.581226    0.390996    0.000096
 C          1.727902   -0.457597    0.000160
 N          1.232680   -1.758386    0.000128
 C         -0.194865   -1.788156    0.000052
 C         -0.581226   -0.390989    0.000013
 C         -1.727902    0.457603   -0.000076
 O          0.836760    2.839888    0.000091
 O         -0.836760   -2.839881    0.000001
 C         -3.082829    0.060794   -0.000113
 C         -3.531681   -1.276476   -0.000132
 C         -4.916574   -1.408449   -0.000103
 C         -5.602286   -0.189389   -0.000085
 S         -4.479446    1.157787   -0.000084
 H         -2.832583   -2.106884   -0.000144
 H         -5.435527   -2.359549   -0.000105
 C          3.082829   -0.060788    0.000177
 C          3.531683    1.276480    0.000200
 C          4.916577    1.408451    0.000151
 C          5.602287    0.189390    0.000100
 S          4.479444   -1.157785    0.000105
 H          2.832587    2.106890    0.000236
 H          5.435532    2.359550    0.000153
 C         -7.007387    0.014545   -0.000068
 C         -7.800879    1.146810   -0.000163
 C         -9.155188    0.701981   -0.000092
 C        -10.420224    1.322869   -0.000132
 C        -11.551781    0.515215   -0.000024
 C        -11.451865   -0.891243    0.000119
 C        -10.210187   -1.532623    0.000156
 C         -9.093062   -0.711546    0.000047
 O         -7.790632   -1.129767    0.000061
 H         -7.446603    2.168656   -0.000280
 H        -10.506555    2.405454   -0.000241
 H        -12.536358    0.974198   -0.000050
 H        -12.357835   -1.490101    0.000202
 H        -10.118699   -2.613614    0.000265
 C          7.007387   -0.014547    0.000047
 C          7.800877   -1.146814    0.000110
 C          9.155187   -0.701987    0.000006
 C         10.420222   -1.322878    0.000005
 C         11.551780   -0.515226   -0.000126
 C         11.451866    0.891232   -0.000251
 C         10.210190    1.532615   -0.000247
 C          9.093064    0.711540   -0.000116
 O          7.790634    1.129763   -0.000090
 H          7.446599   -2.168659    0.000224
 H         10.506551   -2.405462    0.000100
 H         12.536357   -0.974210   -0.000132
 H         12.357838    1.490089   -0.000353
 H         10.118704    2.613606   -0.000342
 C         -1.978956    3.005640   -0.000262
 C          1.978956   -3.005633    0.000305
 H          2.602742   -3.096349    0.894749
 H          1.238143   -3.806497    0.000519
 H          2.602599   -3.096714   -0.894206
 H         -1.238142    3.806503   -0.000461
 H         -2.602714    3.096349   -0.894726
 H         -2.602625    3.096731    0.894230
