       125
S0: Total Energy = -5732.66224569
 C          3.697486   -2.235549    0.113088
 C          2.820900   -3.279587    0.150842
 C          1.488344   -2.715756    0.162450
 N          1.579011   -1.342027    0.121135
 C          2.909500   -1.027400    0.089147
 C          2.240187    3.695519   -0.258172
 C          3.277810    2.812981   -0.192019
 C          2.700575    1.497360   -0.060731
 N          1.336818    1.590295   -0.042571
 C          1.019554    2.925255   -0.156868
 C          3.447228    0.288215    0.015557
 C         -3.697490    2.235498   -0.113104
 C         -2.820904    3.279536   -0.150860
 C         -1.488348    2.715705   -0.162478
 N         -1.579015    1.341976   -0.121168
 C         -2.909504    1.027348   -0.089173
 C         -0.287803    3.463516   -0.194859
 C         -2.240190   -3.695572    0.258131
 C         -3.277814   -2.813034    0.191979
 C         -2.700579   -1.497412    0.060698
 N         -1.336821   -1.590346    0.042540
 C         -1.019557   -2.925307    0.156833
 C          0.287800   -3.463567    0.194828
 C         -3.447232   -0.288267   -0.015586
Zn         -0.000002   -0.000026   -0.000017
 H          4.777352   -2.275631    0.090418
 H          3.051881   -4.334333    0.161230
 H          2.296744    4.767122   -0.379279
 H          4.336010    3.027037   -0.239806
 H         -4.777356    2.275581   -0.090427
 H         -3.051885    4.334282   -0.161241
 H         -2.296747   -4.767175    0.379233
 H         -4.336014   -3.027090    0.239762
 C          4.858723    0.406207    0.002119
 C          6.075085    0.524844   -0.007356
 C         -4.858727   -0.406257   -0.002140
 C         -6.075089   -0.524890    0.007346
 C          7.466930    0.654135   -0.017911
 C          8.229058    1.816408   -0.085386
 S          8.504664   -0.758280    0.059007
 C          9.612453    1.583339   -0.075925
 H          7.779787    2.801049   -0.139511
 C          9.958193    0.233834   -0.000751
 H         10.366340    2.362850   -0.121992
 C         11.305862   -0.259538    0.022895
 C         12.481625    0.496539   -0.025243
 N         11.692915   -1.596975    0.098495
 C         12.966439    1.854617   -0.105661
 C         13.601907   -0.375734    0.020381
 C         13.118424   -1.734485    0.100607
 C         10.854855   -2.782124    0.170918
 N         14.393016    1.715662   -0.103966
 O         12.407490    2.950863   -0.166262
 C         14.777439    0.379508   -0.028372
 O         13.679023   -2.829918    0.161424
 H         11.535547   -3.633832    0.217284
 H         10.222358   -2.880991   -0.716669
 H         10.230231   -2.777417    1.069526
 C         15.231629    2.900521   -0.176268
 C         16.129097   -0.115521   -0.005480
 H         14.551746    3.752825   -0.221622
 H         15.865280    2.997249    0.710627
 H         15.856027    2.894950   -1.074929
 C         16.477344   -1.458864    0.070747
 S         17.585479    0.876963   -0.068841
 H         15.727993   -2.242443    0.119036
 C         17.875573   -1.679601    0.077839
 C         18.601120   -0.516764    0.007668
 H         18.328852   -2.662923    0.132853
 H         19.676304   -0.395159   -0.003738
 C         -7.466936   -0.654164    0.017914
 C         -8.229080   -1.816427    0.085403
 S         -8.504653    0.758265   -0.058999
 C         -9.612471   -1.583338    0.075960
 H         -7.779820   -2.801073    0.139529
 C         -9.958194   -0.233830    0.000787
 H        -10.366368   -2.362839    0.122039
 C        -11.305856    0.259562   -0.022844
 C        -12.481629   -0.496499    0.025295
 N        -11.692891    1.597005   -0.098429
 C        -12.966462   -1.854572    0.105682
 C        -13.601899    0.375789   -0.020317
 C        -13.118398    1.734535   -0.100531
 C        -10.854814    2.782144   -0.170823
 N        -14.393037   -1.715600    0.103972
 O        -12.407528   -2.950827    0.166263
 C        -14.777443   -0.379438    0.028404
 O        -13.678982    2.829976   -0.161333
 H        -11.535494    3.633863   -0.217150
 H        -10.230204    2.777460   -1.069440
 H        -10.222303    2.880969    0.716758
 C        -15.231666   -2.900448    0.176252
 C        -16.129094    0.115609    0.005507
 H        -14.551796   -3.752761    0.221614
 H        -15.856081   -2.894873    1.074903
 H        -15.865303   -2.997165   -0.710655
 C        -16.477321    1.458960   -0.070683
 S        -17.585490   -0.876858    0.068808
 H        -15.727959    2.242530   -0.118935
 C        -17.875548    1.679715   -0.077793
 C        -18.601111    0.516885   -0.007673
 H        -18.328813    2.663044   -0.132782
 H        -19.676297    0.395293    0.003711
 C         -0.424265    4.938895   -0.280435
 C         -0.928187    5.690630   -1.311514
 S          0.021105    5.986952    1.060065
 C         -0.949888    7.093176   -1.042890
 H         -1.265219    5.249271   -2.243576
 C         -0.472731    7.425967    0.197730
 H         -1.305561    7.834706   -1.751437
 C          0.424261   -4.938946    0.280402
 C          0.928167   -5.690683    1.311488
 S         -0.021086   -5.987000   -1.060108
 C          0.949872   -7.093229    1.042862
 H          1.265184   -5.249326    2.243556
 C          0.472735   -7.426017   -0.197767
 H          1.305532   -7.834760    1.751412
 C         -0.346872    8.787552    0.815452
 H          0.693603    9.030275    1.063205
 H         -0.711322    9.544983    0.114492
 H         -0.931828    8.874017    1.739154
 C          0.346886   -8.787600   -0.815494
 H          0.711323   -9.545034   -0.114530
 H         -0.693585   -9.030323   -1.063265
 H          0.931858   -8.874064   -1.739186
       125
T1: Total Energy = -5732.62929047
 C          3.688493    2.255068   -0.080347
 C          2.805819    3.297894   -0.116642
 C          1.480257    2.730764   -0.150050
 N          1.578202    1.351915   -0.119635
 C          2.906378    1.048009   -0.076541
 C          2.251839   -3.690679    0.276147
 C          3.288283   -2.801506    0.214147
 C          2.706258   -1.494654    0.068141
 N          1.347043   -1.589841    0.035794
 C          1.032824   -2.930361    0.155350
 C          3.455902   -0.274633   -0.007402
 C         -3.688498   -2.255344    0.079879
 C         -2.805819   -3.298171    0.116132
 C         -1.480260   -2.731040    0.149483
 N         -1.578213   -1.352189    0.119073
 C         -2.906387   -1.048289    0.076031
 C         -0.274535   -3.470473    0.185990
 C         -2.251836    3.690416   -0.276746
 C         -3.288285    2.801247   -0.214707
 C         -2.706264    1.494400   -0.068693
 N         -1.347054    1.589577   -0.036380
 C         -1.032826    2.930097   -0.155959
 C          0.274536    3.470203   -0.186591
 C         -3.455919    0.274369    0.006914
Zn         -0.000006   -0.000135   -0.000295
 H          4.767735    2.300381   -0.043485
 H          3.034876    4.352928   -0.108746
 H          2.315489   -4.760234    0.409692
 H          4.346688   -3.010707    0.276404
 H         -4.767742   -2.300659    0.043065
 H         -3.034875   -4.353206    0.108246
 H         -2.315484    4.759970   -0.410305
 H         -4.346691    3.010453   -0.276941
 C          4.850333   -0.384843    0.005532
 C          6.075422   -0.496520    0.013702
 C         -4.850315    0.384582   -0.005899
 C         -6.075424    0.496270   -0.013985
 C          7.452036   -0.614656    0.022075
 C          8.228265   -1.784334    0.089835
 S          8.495024    0.804526   -0.057272
 C          9.597805   -1.554356    0.079058
 H          7.777011   -2.768099    0.144906
 C          9.954176   -0.191787    0.002042
 H         10.351947   -2.333441    0.124830
 C         11.284331    0.288498   -0.022415
 C         12.474901   -0.480664    0.026191
 N         11.692287    1.622185   -0.098870
 C         12.953364   -1.843830    0.107644
 C         13.587984    0.377303   -0.019880
 C         13.110779    1.745052   -0.101216
 C         10.864062    2.814894   -0.172365
 N         14.378293   -1.715301    0.105597
 O         12.385201   -2.936567    0.169100
 C         14.774348   -0.386075    0.029274
 O         13.688144    2.831621   -0.162585
 H         11.550241    3.661882   -0.220107
 H         10.232842    2.918064    0.715409
 H         10.239109    2.812271   -1.070514
 C         15.208792   -2.906412    0.178546
 C         16.120535    0.103771    0.005566
 H         14.524150   -3.754640    0.224542
 H         15.841571   -3.005961   -0.708487
 H         15.833204   -2.902544    1.077038
 C         16.476557    1.448614   -0.072020
 S         17.575498   -0.895053    0.069447
 H         15.730866    2.235386   -0.120744
 C         17.874040    1.662288   -0.079565
 C         18.596151    0.496252   -0.008579
 H         18.331643    2.643573   -0.135504
 H         19.670892    0.371103    0.002620
 C         -7.451989    0.614451   -0.022247
 C         -8.228196    1.784196   -0.090008
 S         -8.495055   -0.804702    0.057297
 C         -9.597703    1.554310   -0.079079
 H         -7.776892    2.767932   -0.145186
 C         -9.954177    0.191714   -0.001930
 H        -10.351796    2.333441   -0.124822
 C        -11.284285   -0.288444    0.022715
 C        -12.474887    0.480848   -0.025797
 N        -11.692390   -1.622081    0.099303
 C        -12.953265    1.844062   -0.107278
 C        -13.587982   -0.376982    0.020468
 C        -13.110866   -1.744794    0.101833
 C        -10.864280   -2.814873    0.172762
 N        -14.378193    1.715668   -0.105037
 O        -12.385004    2.936743   -0.168876
 C        -14.774365    0.386504   -0.028580
 O        -13.688357   -2.831284    0.163347
 H        -11.550533   -3.661794    0.220621
 H        -10.239227   -2.812265    1.070840
 H        -10.233171   -2.918139   -0.715079
 C        -15.208594    2.906853   -0.177955
 C        -16.120553   -0.103235   -0.004662
 H        -14.523886    3.755020   -0.224096
 H        -15.833122    2.902973   -1.076364
 H        -15.841245    3.006508    0.709157
 C        -16.476675   -1.448062    0.073068
 S        -17.575456    0.895698   -0.068428
 H        -15.731045   -2.234892    0.121752
 C        -17.874166   -1.661622    0.080807
 C        -18.596201   -0.495534    0.009828
 H        -18.331838   -2.642868    0.136875
 H        -19.670934   -0.370307   -0.001242
 C         -0.407872   -4.944893    0.269356
 C         -0.974133   -5.692858    1.271657
 S          0.123492   -5.999348   -1.034184
 C         -0.974623   -7.096054    1.010748
 H         -1.369003   -5.247236    2.178450
 C         -0.421860   -7.433851   -0.197183
 H         -1.370971   -7.834817    1.700280
 C          0.407885    4.944621   -0.269960
 C          0.974175    5.692576   -1.272252
 S         -0.123500    5.999087    1.033563
 C          0.974673    7.095773   -1.011348
 H          1.369062    5.246946   -2.179033
 C          0.421886    7.433581    0.196569
 H          1.371045    7.834529   -1.700874
 C         -0.258057   -8.798065   -0.799873
 H          0.795679   -9.041150   -0.982645
 H         -0.664432   -9.552598   -0.119178
 H         -0.785532   -8.888706   -1.757175
 C          0.258084    8.797799    0.799250
 H          0.664482    9.552325    0.118561
 H         -0.795654    9.040895    0.981997
 H          0.785538    8.888438    1.756563
       125
S1: Total Energy = -5732.61046597
 C          3.692026    2.250245   -0.065664
 C          2.811323    3.295327   -0.099820
 C          1.485268    2.731736   -0.143273
 N          1.580121    1.351362   -0.119481
 C          2.907479    1.044539   -0.071626
 C          2.247061   -3.694592    0.279758
 C          3.284607   -2.805638    0.219893
 C          2.703810   -1.498851    0.068865
 N          1.344613   -1.593622    0.030670
 C          1.029482   -2.934878    0.151428
 C          3.454413   -0.279214   -0.004797
 C         -3.692031   -2.250129    0.065714
 C         -2.811328   -3.295210    0.099887
 C         -1.485273   -2.731619    0.143330
 N         -1.580125   -1.351245    0.119516
 C         -2.907484   -1.044423    0.071658
 C         -0.279968   -3.473669    0.179698
 C         -2.247066    3.694711   -0.279693
 C         -3.284612    2.805757   -0.219842
 C         -2.703815    1.498967   -0.068833
 N         -1.344619    1.593738   -0.030633
 C         -1.029487    2.934996   -0.151371
 C          0.279963    3.473787   -0.179631
 C         -3.454418    0.279328    0.004814
Zn         -0.000003    0.000058    0.000012
 H          4.771108    2.293385   -0.022455
 H          3.043380    4.349492   -0.082181
 H          2.310945   -4.763405    0.418104
 H          4.342555   -3.015256    0.287933
 H         -4.771113   -2.293269    0.022509
 H         -3.043385   -4.349376    0.082267
 H         -2.310949    4.763526   -0.418022
 H         -4.342559    3.015377   -0.287880
 C          4.848409   -0.391305    0.009157
 C          6.073441   -0.504673    0.017561
 C         -4.848414    0.391417   -0.009138
 C         -6.073448    0.504767   -0.017494
 C          7.450721   -0.624969    0.025799
 C          8.225839   -1.793892    0.097428
 S          8.492501    0.792894   -0.059520
 C          9.597265   -1.561187    0.085014
 H          7.775493   -2.777722    0.156510
 C          9.950522   -0.202067    0.002683
 H         10.352388   -2.339427    0.133693
 C         11.285962    0.280521   -0.024707
 C         12.470996   -0.484241    0.028264
 N         11.686697    1.614703   -0.109437
 C         12.950548   -1.844623    0.118868
 C         13.587094    0.378121   -0.023543
 C         13.108572    1.742185   -0.113147
 C         10.855490    2.804660   -0.190711
 N         14.378045   -1.712293    0.116000
 O         12.387365   -2.938545    0.187625
 C         14.769860   -0.381768    0.030770
 O         13.679677    2.831060   -0.181704
 H         11.540083    3.652658   -0.244329
 H         10.224364    2.912988    0.696579
 H         10.230295    2.795144   -1.088713
 C         15.210788   -2.900987    0.197025
 C         16.116362    0.110160    0.003780
 H         14.527174   -3.749908    0.247744
 H         15.844472   -3.005793   -0.688873
 H         15.834548   -2.891282    1.096075
 C         16.470465    1.454943   -0.082587
 S         17.572633   -0.886262    0.073957
 H         15.723606    2.240375   -0.136329
 C         17.867279    1.670256   -0.091662
 C         18.590841    0.504990   -0.013164
 H         18.323981    2.651584   -0.153985
 H         19.665829    0.381566   -0.001256
 C         -7.450732    0.625021   -0.025764
 C         -8.225882    1.793919   -0.097473
 S         -8.492474   -0.792866    0.059610
 C         -9.597301    1.561177   -0.085072
 H         -7.775561    2.777758   -0.156598
 C         -9.950522    0.202050   -0.002682
 H        -10.352445    2.339393   -0.133807
 C        -11.285950   -0.280573    0.024705
 C        -12.471003    0.484155   -0.028346
 N        -11.686651   -1.614759    0.109509
 C        -12.950590    1.844518   -0.119049
 C        -13.587079   -0.378234    0.023488
 C        -13.108524   -1.742279    0.113193
 C        -10.855416   -2.804690    0.190887
 N        -14.378084    1.712150   -0.116199
 O        -12.387435    2.938451   -0.187861
 C        -14.769864    0.381618   -0.030900
 O        -13.679602   -2.831164    0.181805
 H        -11.539989   -3.652700    0.244554
 H        -10.230239   -2.795092    1.088901
 H        -10.224270   -2.913069   -0.696382
 C        -15.210855    2.900818   -0.197321
 C        -16.116351   -0.110351   -0.003907
 H        -14.527260    3.749751   -0.248091
 H        -15.834602    2.891033   -1.096378
 H        -15.844552    3.005674    0.688561
 C        -16.470408   -1.455142    0.082524
 S        -17.572657    0.886014   -0.074159
 H        -15.723521   -2.240545    0.136320
 C        -17.867214   -1.670505    0.091594
 C        -18.590816   -0.505269    0.013029
 H        -18.323881   -2.651846    0.153964
 H        -19.665809   -0.381884    0.001102
 C         -0.416745   -4.946228    0.260084
 C         -1.017594   -5.692600    1.244533
 S          0.154972   -6.004708   -1.023823
 C         -1.012164   -7.095433    0.986074
 H         -1.439748   -5.245047    2.137887
 C         -0.421314   -7.436065   -0.203394
 H         -1.431692   -7.832491    1.663578
 C          0.416740    4.946347   -0.259996
 C          1.017593    5.692733   -1.244433
 S         -0.154980    6.004809    1.023925
 C          1.012161    7.095562   -0.985954
 H          1.439748    5.245192   -2.137792
 C          0.421309    7.436177    0.203518
 H          1.431692    7.832630   -1.663446
 C         -0.242344   -8.801459   -0.798783
 H          0.816025   -9.047594   -0.947520
 H         -0.672500   -9.553999   -0.130654
 H         -0.739089   -8.891609   -1.772436
 C          0.242336    8.801562    0.798926
 H          0.672495    9.554112    0.130808
 H         -0.816033    9.047695    0.947663
 H          0.739080    8.891698    1.772581
