        77
S0: Total Energy = -5266.01559896
 S         -0.000084   -1.845267    0.853269
 C         -0.000319   -3.199376    1.985697
 C         -0.000360   -2.751775    3.302904
 C         -0.000243   -1.346904    3.427846
 C         -0.000099   -0.721454    2.175201
 H         -0.000500   -3.445015    4.134686
 S          0.000084    1.845267    0.853269
 C          0.000319    3.199376    1.985697
 C          0.000360    2.751775    3.302904
 C          0.000243    1.346904    3.427846
 C          0.000099    0.721454    2.175201
 H          0.000500    3.445015    4.134686
Si         -0.000000   -0.000000    4.760241
 C         -0.000373   -4.537719    1.445345
 C         -0.000724   -5.733566    2.256514
 N         -0.001145   -5.795739    3.590104
 S         -0.001492   -7.388296    3.990183
 N         -0.001099   -8.048609    2.485062
 C         -0.000711   -7.034238    1.613025
 C         -0.000318   -7.122720    0.176014
 C         -0.000032   -5.885200   -0.465001
 H          0.000301   -5.850537   -1.552328
 C          0.000373    4.537719    1.445345
 C          0.000724    5.733566    2.256514
 N          0.001145    5.795739    3.590104
 S          0.001492    7.388296    3.990183
 N          0.001099    8.048609    2.485062
 C          0.000711    7.034238    1.613025
 C          0.000318    7.122720    0.176014
 C          0.000032    5.885200   -0.465001
 H         -0.000301    5.850537   -1.552328
 C         -0.000214   -8.380606   -0.545441
 C          0.000197   -9.673533   -0.053228
 C          0.000319  -10.670180   -1.055809
 C         -0.000009  -10.171133   -2.344232
 S         -0.000566   -8.415463   -2.310747
 H          0.000436   -9.887124    1.006956
 H          0.000701  -11.732449   -0.835476
 C          0.000214    8.380606   -0.545441
 C         -0.000197    9.673533   -0.053228
 C         -0.000319   10.670180   -1.055809
 C          0.000009   10.171133   -2.344232
 S          0.000566    8.415463   -2.310747
 H         -0.000436    9.887124    1.006956
 H         -0.000701   11.732449   -0.835476
 C          0.000031  -10.887458   -3.598352
 C          0.000322  -10.393177   -4.885496
 C          0.000276  -11.404857   -5.885317
 C         -0.000039  -12.681475   -5.385204
 S         -0.000370  -12.648903   -3.634918
 H          0.000602   -9.331757   -5.111064
 H          0.000491  -11.194880   -6.950084
 C         -0.000031   10.887458   -3.598352
 C         -0.000322   10.393177   -4.885496
 C         -0.000276   11.404857   -5.885317
 C          0.000039   12.681475   -5.385204
 S          0.000370   12.648903   -3.634918
 H         -0.000602    9.331757   -5.111064
 H         -0.000491   11.194880   -6.950084
 C         -1.557109    0.000339    5.823707
 H         -1.587507   -0.885300    6.469380
 H         -1.587030    0.885886    6.469528
 H         -2.460390    0.000631    5.204703
 C          1.557109   -0.000339    5.823707
 H          1.587507    0.885300    6.469380
 H          1.587030   -0.885886    6.469528
 H          2.460390   -0.000631    5.204703
 C         -0.000001  -13.979082   -6.135001
 H          0.884046  -14.585583   -5.903479
 H         -0.883316  -14.586248   -5.902469
 H         -0.000682  -13.781496   -7.211199
 C          0.000001   13.979082   -6.135001
 H          0.883316   14.586248   -5.902469
 H         -0.884046   14.585583   -5.903479
 H          0.000682   13.781496   -7.211199
 N         -0.000070   -4.669958    0.121342
 N          0.000070    4.669958    0.121342
        77
T1: Total Energy = -5265.98362347
 S          0.000004    1.842596    0.795074
 C          0.000003    3.193328    1.945233
 C         -0.000001    2.724119    3.280937
 C         -0.000000    1.342728    3.394971
 C         -0.000001    0.702819    2.117441
 H          0.000002    3.419732    4.110620
 S         -0.000004   -1.842596    0.795074
 C         -0.000003   -3.193328    1.945233
 C          0.000001   -2.724119    3.280937
 C         -0.000000   -1.342728    3.394971
 C          0.000001   -0.702819    2.117441
 H         -0.000002   -3.419732    4.110620
Si          0.000000    0.000000    4.734666
 C          0.000015    4.512306    1.436277
 C         -0.000001    5.703566    2.257129
 N         -0.000055    5.754687    3.587490
 S          0.000011    7.358276    4.006381
 N         -0.000037    8.022043    2.488797
 C          0.000002    7.009615    1.619866
 C          0.000037    7.100080    0.181853
 C          0.000046    5.847773   -0.480043
 H          0.000042    5.835574   -1.569001
 C         -0.000015   -4.512306    1.436277
 C          0.000001   -5.703566    2.257129
 N          0.000055   -5.754687    3.587490
 S         -0.000011   -7.358276    4.006381
 N          0.000037   -8.022043    2.488797
 C         -0.000002   -7.009615    1.619866
 C         -0.000037   -7.100080    0.181853
 C         -0.000046   -5.847773   -0.480043
 H         -0.000042   -5.835574   -1.569001
 C          0.000046    8.341664   -0.534165
 C         -0.000117    9.643890   -0.036475
 C         -0.000102   10.636752   -1.030446
 C          0.000076   10.141384   -2.327526
 S          0.000282    8.385056   -2.304041
 H         -0.000264    9.848207    1.025388
 H         -0.000256   11.698702   -0.808697
 C         -0.000046   -8.341664   -0.534165
 C          0.000117   -9.643890   -0.036475
 C          0.000102  -10.636752   -1.030446
 C         -0.000076  -10.141384   -2.327526
 S         -0.000282   -8.385056   -2.304041
 H          0.000264   -9.848207    1.025388
 H          0.000256  -11.698702   -0.808697
 C          0.000114   10.865279   -3.569991
 C         -0.000055   10.378366   -4.863573
 C         -0.000001   11.394845   -5.854221
 C          0.000205   12.669825   -5.344362
 S          0.000484   12.628178   -3.595765
 H         -0.000269    9.318405   -5.095293
 H         -0.000149   11.193178   -6.920447
 C         -0.000114  -10.865279   -3.569991
 C          0.000055  -10.378366   -4.863573
 C          0.000001  -11.394845   -5.854221
 C         -0.000205  -12.669825   -5.344362
 S         -0.000484  -12.628178   -3.595765
 H          0.000269   -9.318405   -5.095293
 H          0.000149  -11.193178   -6.920447
 C          1.559025   -0.000007    5.792208
 H          1.589712    0.885765    6.437568
 H          1.589652   -0.885728    6.437640
 H          2.460996   -0.000063    5.171480
 C         -1.559025    0.000007    5.792208
 H         -1.589712   -0.885765    6.437568
 H         -1.589652    0.885728    6.437640
 H         -2.460996    0.000063    5.171480
 C          0.000194   13.970803   -6.087349
 H         -0.883606   14.575802   -5.851222
 H          0.883687   14.576074   -5.850794
 H          0.000479   13.779327   -7.164506
 C         -0.000194  -13.970803   -6.087349
 H         -0.883687  -14.576074   -5.850794
 H          0.883606  -14.575802   -5.851222
 H         -0.000479  -13.779327   -7.164506
 N          0.000031    4.648955    0.083946
 N         -0.000031   -4.648955    0.083946
        77
S1: Total Energy = -5265.96506060
 S          0.000025    1.842113    0.822717
 C          0.000051    3.193735    1.965274
 C          0.000052    2.735501    3.292951
 C          0.000032    1.343923    3.411916
 C          0.000014    0.710388    2.144501
 H          0.000067    3.432294    4.121576
 S         -0.000025   -1.842113    0.822717
 C         -0.000051   -3.193735    1.965274
 C         -0.000052   -2.735501    3.292951
 C         -0.000032   -1.343923    3.411916
 C         -0.000014   -0.710388    2.144501
 H         -0.000067   -3.432294    4.121576
Si         -0.000000    0.000000    4.749604
 C          0.000054    4.520932    1.439588
 C          0.000052    5.710823    2.254745
 N          0.000057    5.763383    3.589648
 S          0.000092    7.368362    4.000164
 N          0.000014    8.031506    2.480462
 C          0.000029    7.012708    1.614611
 C          0.000009    7.094956    0.177758
 C          0.000014    5.847789   -0.477673
 H         -0.000022    5.827426   -1.566262
 C         -0.000054   -4.520932    1.439588
 C         -0.000052   -5.710823    2.254745
 N         -0.000057   -5.763383    3.589648
 S         -0.000092   -7.368362    4.000164
 N         -0.000014   -8.031506    2.480462
 C         -0.000029   -7.012708    1.614611
 C         -0.000009   -7.094956    0.177758
 C         -0.000014   -5.847789   -0.477673
 H          0.000022   -5.827426   -1.566262
 C         -0.000019    8.339466   -0.542857
 C         -0.000210    9.641301   -0.046875
 C         -0.000225   10.632434   -1.042487
 C         -0.000043   10.134490   -2.339732
 S          0.000226    8.377956   -2.311451
 H         -0.000360    9.846194    1.014858
 H         -0.000407   11.694826   -0.822634
 C          0.000019   -8.339466   -0.542857
 C          0.000210   -9.641301   -0.046875
 C          0.000225  -10.632434   -1.042487
 C          0.000043  -10.134490   -2.339732
 S         -0.000226   -8.377956   -2.311451
 H          0.000360   -9.846194    1.014858
 H          0.000407  -11.694826   -0.822634
 C         -0.000034   10.855618   -3.580748
 C         -0.000155   10.366654   -4.875861
 C         -0.000141   11.380867   -5.866010
 C         -0.000015   12.658013   -5.357039
 S          0.000227   12.619529   -3.609220
 H         -0.000300    9.306421   -5.105975
 H         -0.000256   11.178775   -6.932130
 C          0.000034  -10.855618   -3.580748
 C          0.000155  -10.366654   -4.875861
 C          0.000141  -11.380867   -5.866010
 C          0.000015  -12.658013   -5.357039
 S         -0.000227  -12.619529   -3.609220
 H          0.000300   -9.306421   -5.105975
 H          0.000256  -11.178775   -6.932130
 C          1.558657   -0.000046    5.808431
 H          1.589179    0.885733    6.453805
 H          1.589072   -0.885775    6.453880
 H          2.460907   -0.000127    5.188078
 C         -1.558657    0.000046    5.808431
 H         -1.589179   -0.885733    6.453805
 H         -1.589072    0.885775    6.453880
 H         -2.460907    0.000127    5.188078
 C         -0.000081   13.956718   -6.102795
 H         -0.883818   14.562284   -5.867390
 H          0.883243   14.562680   -5.866885
 H          0.000264   13.763222   -7.179519
 C          0.000081  -13.956718   -6.102795
 H         -0.883243  -14.562680   -5.866885
 H          0.883818  -14.562284   -5.867390
 H         -0.000264  -13.763222   -7.179519
 N          0.000037    4.644997    0.095578
 N         -0.000037   -4.644997    0.095578
