       109
S0: Total Energy = -7475.33071969
 S         -7.217275   -0.858919   -0.000010
 C         -8.896102   -1.407522    0.000182
 C         -8.968305   -2.796881    0.000395
 C         -7.710314   -3.434572    0.000420
 C         -6.664680   -2.503287    0.000215
 H         -9.920787   -3.311970    0.000534
 S         -3.787676   -2.240157    0.000004
 C         -2.934988   -3.794986    0.000153
 C         -3.852090   -4.840702    0.000338
 C         -5.204636   -4.432850    0.000366
 C         -5.326517   -3.042825    0.000198
 H         -3.523606   -5.871325    0.000444
Si         -6.950696   -5.170020    0.000600
 C         -9.935621   -0.407888    0.000089
 C        -11.348157   -0.714427    0.000214
 N        -11.902652   -1.928586    0.000428
 S        -13.529903   -1.706535    0.000521
 N        -13.581576   -0.063313    0.000239
 C        -12.315266    0.367678    0.000101
 C        -11.861368    1.733854   -0.000135
 C        -10.474233    1.867002   -0.000250
 H        -10.036944    2.863200   -0.000473
 C         -1.483810   -3.832232    0.000077
 C         -0.730492   -5.065262    0.000026
 N         -1.251456   -6.295614    0.000046
 S          0.000047   -7.357727   -0.000045
 N          1.251496   -6.295574   -0.000098
 C          0.730519   -5.065242   -0.000060
 C          1.483820   -3.832199   -0.000091
 C          0.704543   -2.680127   -0.000037
 H          1.192154   -1.709848   -0.000058
 C        -12.759661    2.872640   -0.000244
 C        -14.142681    2.898472   -0.000596
 C        -14.693308    4.200892   -0.000686
 C        -13.749819    5.209960   -0.000393
 S        -12.133328    4.523491    0.000088
 H        -14.736375    1.994486   -0.000813
 H        -15.761101    4.392896   -0.001008
 C        -13.945854    6.641001   -0.000409
 C        -13.006762    7.650419   -0.000663
 C        -13.571874    8.955905   -0.000610
 C        -14.942815    8.968803   -0.000320
 S        -15.566134    7.332857   -0.000009
 H        -11.937900    7.463185   -0.000927
 H        -12.979151    9.865037   -0.000809
 C         -7.343235   -6.158055    1.558085
 H         -8.404790   -6.430839    1.588495
 H         -6.758710   -7.085144    1.588710
 H         -7.114488   -5.582332    2.461043
 C         -7.343501   -6.158474   -1.556553
 H         -6.758905   -7.085521   -1.587082
 H         -8.405041   -6.431355   -1.586655
 H         -7.115009   -5.582954   -2.459704
 C        -15.867359   10.148318   -0.000302
 H        -16.516755   10.159319   -0.884120
 H        -16.517264   10.158909    0.883141
 H        -15.283214   11.073557    0.000076
 N         -9.564532    0.870420   -0.000137
 C         -0.704530   -2.680148    0.000044
 H         -1.192149   -1.709876    0.000090
 C          2.934987   -3.794983   -0.000167
 S          3.787691   -2.240193   -0.000030
 C          3.852095   -4.840706   -0.000347
 C          5.326549   -3.042841   -0.000203
 C          5.204636   -4.432881   -0.000367
 H          3.523577   -5.871316   -0.000451
 C          6.664684   -2.503284   -0.000213
Si          6.950736   -5.170013   -0.000584
 S          7.217284   -0.858925    0.000012
 C          7.710330   -3.434574   -0.000407
 C          7.343289   -6.158046   -1.558068
 C          7.343535   -6.158449    1.556582
 C          8.896120   -1.407530   -0.000170
 C          8.968317   -2.796890   -0.000375
 H          8.404848   -6.430816   -1.588488
 H          6.758776   -7.085142   -1.588686
 H          7.114527   -5.582328   -2.461026
 H          6.758949   -7.085502    1.587107
 H          8.405077   -6.431317    1.586710
 H          7.115017   -5.582924    2.459724
 C          9.935623   -0.407885   -0.000076
 H          9.920800   -3.311978   -0.000506
 C         11.348161   -0.714417   -0.000196
 N          9.564525    0.870422    0.000144
 N         11.902657   -1.928573   -0.000412
 C         12.315266    0.367693   -0.000085
 C         10.474222    1.867007    0.000255
 S         13.529912   -1.706517   -0.000477
 N         13.581577   -0.063290   -0.000224
 C         11.861358    1.733867    0.000144
 H         10.036929    2.863203    0.000471
 C         12.759645    2.872658    0.000250
 C         14.142664    2.898498    0.000596
 S         12.133301    4.523505   -0.000079
 C         14.693283    4.200921    0.000682
 H         14.736364    1.994515    0.000811
 C         13.749790    5.209984    0.000392
 H         15.761076    4.392931    0.000999
 C         13.945815    6.641026    0.000405
 C         13.006716    7.650436    0.000663
 S         15.566090    7.332893    0.000006
 C         13.571818    8.955927    0.000601
 H         11.937855    7.463196    0.000932
 C         14.942758    8.968837    0.000301
 H         12.979086    9.865054    0.000797
 C         15.867295   10.148357    0.000268
 H         16.516696   10.159369    0.884083
 H         16.517195   10.158944   -0.883179
 H         15.283145   11.073593   -0.000115
       109
T1: Total Energy = -7475.29877812
 S          7.191117    0.819555   -0.000024
 C          8.866588    1.387795    0.000046
 C          8.925397    2.790036    0.000049
 C          7.674610    3.411779    0.000033
 C          6.619995    2.465048    0.000003
 H          9.876188    3.308083    0.000081
 S          3.760977    2.180293   -0.000067
 C          2.901860    3.744228   -0.000054
 C          3.841067    4.802595   -0.000021
 C          5.171701    4.399289   -0.000001
 C          5.302520    2.987488   -0.000015
 H          3.505202    5.830810   -0.000009
Si          6.915373    5.148407    0.000044
 C          9.910094    0.411689    0.000074
 C         11.319656    0.732117    0.000102
 N         11.862052    1.950157    0.000043
 S         13.497930    1.743362    0.000383
 N         13.559180    0.095353    0.000013
 C         12.296670   -0.342832    0.000071
 C         11.852060   -1.712137    0.000024
 C         10.457157   -1.859857    0.000020
 H         10.034876   -2.863062   -0.000050
 C          1.484403    3.792588   -0.000072
 C          0.730657    5.032784   -0.000073
 N          1.254744    6.256489   -0.000049
 S         -0.000023    7.335135   -0.000122
 N         -1.254777    6.256474   -0.000068
 C         -0.730675    5.032777   -0.000084
 C         -1.484410    3.792571   -0.000087
 C         -0.689789    2.613361   -0.000087
 H         -1.188765    1.649121   -0.000085
 C         12.752578   -2.840838   -0.000035
 C         14.139540   -2.857415   -0.000170
 C         14.698371   -4.152913   -0.000209
 C         13.761573   -5.171396   -0.000108
 S         12.139256   -4.498591    0.000089
 H         14.724396   -1.947748   -0.000246
 H         15.767465   -4.337566   -0.000335
 C         13.970981   -6.598368   -0.000120
 C         13.040320   -7.617119   -0.000344
 C         13.616959   -8.916483   -0.000361
 C         14.988634   -8.916859   -0.000151
 S         15.597729   -7.276098    0.000321
 H         11.969898   -7.439266   -0.000573
 H         13.032859   -9.831132   -0.000589
 C          7.301005    6.133769    1.559232
 H          8.361461    6.410421    1.590863
 H          6.712682    7.058370    1.589879
 H          7.073423    5.555785    2.460943
 C          7.301068    6.133823   -1.559096
 H          6.712716    7.058405   -1.589753
 H          8.361517    6.410510   -1.590655
 H          7.073558    5.555855   -2.460835
 C         15.923087  -10.088347   -0.000224
 H         16.572761  -10.093199   -0.883878
 H         16.572880  -10.093214    0.883338
 H         15.347017  -11.018587   -0.000196
 N          9.544414   -0.880670    0.000037
 C          0.689796    2.613370   -0.000081
 H          1.188784    1.649136   -0.000076
 C         -2.901858    3.744202   -0.000082
 S         -3.760973    2.180262   -0.000048
 C         -3.841075    4.802572   -0.000093
 C         -5.302521    2.987455   -0.000058
 C         -5.171699    4.399268   -0.000080
 H         -3.505207    5.830788   -0.000112
 C         -6.619981    2.465020   -0.000036
Si         -6.915370    5.148389   -0.000082
 S         -7.191112    0.819524    0.000012
 C         -7.674605    3.411760   -0.000041
 C         -7.301046    6.133741   -1.559266
 C         -7.301023    6.133811    1.559063
 C         -8.866584    1.387773    0.000008
 C         -8.925385    2.790026   -0.000013
 H         -8.361503    6.410390   -1.590870
 H         -6.712726    7.058342   -1.589934
 H         -7.073487    5.555751   -2.460979
 H         -6.712672    7.058394    1.589700
 H         -8.361471    6.410497    1.590650
 H         -7.073488    5.555848    2.460800
 C         -9.910087    0.411685    0.000037
 H         -9.876177    3.308072   -0.000014
 C        -11.319648    0.732118    0.000048
 N         -9.544405   -0.880688    0.000055
 N        -11.862039    1.950159    0.000044
 C        -12.296667   -0.342829    0.000081
 C        -10.457145   -1.859861    0.000084
 S        -13.497925    1.743371    0.000026
 N        -13.559175    0.095355    0.000097
 C        -11.852059   -1.712135    0.000096
 H        -10.034875   -2.863072    0.000111
 C        -12.752570   -2.840830    0.000123
 C        -14.139537   -2.857406    0.000261
 S        -12.139252   -4.498587   -0.000048
 C        -14.698368   -4.152901    0.000262
 H        -14.724389   -1.947737    0.000366
 C        -13.761571   -5.171388    0.000130
 H        -15.767462   -4.337552    0.000387
 C        -13.970983   -6.598356    0.000103
 C        -13.040325   -7.617111    0.000303
 S        -15.597734   -7.276083   -0.000334
 C        -13.616968   -8.916473    0.000266
 H        -11.969903   -7.439261    0.000540
 C        -14.988643   -8.916845    0.000038
 H        -13.032870   -9.831124    0.000456
 C        -15.923099  -10.088330    0.000044
 H        -16.572777  -10.093228    0.883694
 H        -16.572888  -10.093148   -0.883521
 H        -15.347031  -11.018572   -0.000032
       109
S1: Total Energy = -7475.28401788
 S          7.194812    0.829868   -0.000195
 C          8.871070    1.393425   -0.000169
 C          8.934107    2.793160   -0.000155
 C          7.681862    3.418442   -0.000130
 C          6.628799    2.475335   -0.000138
 H          9.886151    3.308751   -0.000144
 S          3.767866    2.197575   -0.000140
 C          2.910992    3.757946   -0.000084
 C          3.842559    4.812897   -0.000079
 C          5.179406    4.409514   -0.000096
 C          5.307761    3.003008   -0.000120
 H          3.507893    5.841503   -0.000055
Si          6.923922    5.155882   -0.000091
 C          9.912100    0.410825   -0.000178
 C         11.320233    0.726758   -0.000167
 N         11.865722    1.945302   -0.000170
 S         13.503392    1.732140   -0.000072
 N         13.558670    0.080580   -0.000190
 C         12.293335   -0.350982   -0.000180
 C         11.841605   -1.717701   -0.000196
 C         10.444832   -1.861742   -0.000210
 H         10.019587   -2.863778   -0.000247
 C          1.482486    3.802120   -0.000053
 C          0.730262    5.039552   -0.000041
 N          1.254275    6.266418   -0.000047
 S         -0.000002    7.338419   -0.000052
 N         -1.254278    6.266416    0.000008
 C         -0.730262    5.039551   -0.000008
 C         -1.482485    3.802118    0.000018
 C         -0.694798    2.632433    0.000005
 H         -1.189811    1.666105    0.000023
 C         12.736031   -2.848769   -0.000199
 C         14.124943   -2.870425   -0.000339
 C         14.678408   -4.165986   -0.000294
 C         13.737447   -5.183314   -0.000119
 S         12.117039   -4.505160   -0.000010
 H         14.711452   -1.961858   -0.000467
 H         15.746848   -4.354598   -0.000404
 C         13.943851   -6.608130   -0.000025
 C         13.010064   -7.626194   -0.000195
 C         13.583608   -8.925435   -0.000060
 C         14.956317   -8.928807    0.000213
 S         15.569635   -7.290207    0.000421
 H         11.940145   -7.445705   -0.000456
 H         12.997940   -9.839055   -0.000193
 C          7.311254    6.140788    1.559031
 H          8.372135    6.415794    1.590252
 H          6.724342    7.066289    1.589772
 H          7.083154    5.563192    2.460855
 C          7.311241    6.140856   -1.559174
 H          6.724293    7.066335   -1.589893
 H          8.372112    6.415906   -1.590369
 H          7.083177    5.563282   -2.461021
 C         15.887270  -10.102657    0.000332
 H         16.537079  -10.108987   -0.883265
 H         16.537217  -10.108707    0.883825
 H         15.308952  -11.031449    0.000521
 N          9.537131   -0.879686   -0.000200
 C          0.694800    2.632433   -0.000029
 H          1.189814    1.666107   -0.000030
 C         -2.910990    3.757945    0.000058
 S         -3.767865    2.197574    0.000134
 C         -3.842558    4.812896    0.000049
 C         -5.307760    3.003007    0.000120
 C         -5.179405    4.409513    0.000082
 H         -3.507891    5.841502    0.000014
 C         -6.628799    2.475334    0.000154
Si         -6.923921    5.155882    0.000083
 S         -7.194812    0.829868    0.000229
 C         -7.681861    3.418441    0.000145
 C         -7.311262    6.140771   -1.559047
 C         -7.311228    6.140871    1.559159
 C         -8.871070    1.393425    0.000206
 C         -8.934106    2.793160    0.000182
 H         -8.372144    6.415776   -1.590265
 H         -6.724351    7.066271   -1.589801
 H         -7.083166    5.563165   -2.460866
 H         -6.724282    7.066351    1.589863
 H         -8.372099    6.415919    1.590361
 H         -7.083156    5.563307    2.461010
 C         -9.912100    0.410825    0.000227
 H         -9.886150    3.308751    0.000172
 C        -11.320233    0.726759    0.000215
 N         -9.537131   -0.879687    0.000247
 N        -11.865721    1.945302    0.000194
 C        -12.293335   -0.350982    0.000220
 C        -10.444832   -1.861742    0.000251
 S        -13.503392    1.732141    0.000180
 N        -13.558670    0.080581    0.000205
 C        -11.841605   -1.717701    0.000230
 H        -10.019587   -2.863778    0.000278
 C        -12.736031   -2.848768    0.000213
 C        -14.124944   -2.870424    0.000326
 S        -12.117040   -4.505159    0.000030
 C        -14.678409   -4.165984    0.000271
 H        -14.711452   -1.961857    0.000446
 C        -13.737449   -5.183313    0.000109
 H        -15.746849   -4.354597    0.000363
 C        -13.943853   -6.608129    0.000009
 C        -13.010066   -7.626193    0.000204
 S        -15.569637   -7.290206   -0.000472
 C        -13.583610   -8.925434    0.000047
 H        -11.940147   -7.445704    0.000493
 C        -14.956319   -8.928805   -0.000268
 H        -12.997942   -9.839054    0.000190
 C        -15.887273  -10.102656   -0.000424
 H        -16.537104  -10.108996    0.883156
 H        -16.537196  -10.108695   -0.883934
 H        -15.308955  -11.031448   -0.000609
