       109
S0: Total Energy = -7152.29569213
 S         -7.305005   -0.889671    0.000079
 C         -8.965473   -1.490528    0.000230
 C         -8.995014   -2.881273    0.000420
 C         -7.717620   -3.479656    0.000445
 C         -6.701767   -2.516294    0.000270
 H         -9.931091   -3.425582    0.000534
 S         -3.834778   -2.162499    0.000085
 C         -2.938336   -3.688500    0.000200
 C         -3.819231   -4.765229    0.000364
 C         -5.183365   -4.400891    0.000398
 C         -5.347874   -3.014522    0.000255
 H         -3.460640   -5.787093    0.000449
Si         -6.906563   -5.192081    0.000602
 C        -10.036022   -0.523282    0.000129
 C        -11.438083   -0.873094    0.000217
 N        -11.955267   -2.103772    0.000410
 S        -13.588338   -1.931322    0.000467
 N        -13.690307   -0.290734    0.000190
 C        -12.437788    0.178854    0.000085
 C        -12.026067    1.558402   -0.000133
 C        -10.643567    1.734085   -0.000206
 H        -10.236714    2.743040   -0.000411
 C         -1.491447   -3.696254    0.000120
 C         -0.722032   -4.917789    0.000067
 N         -1.137410   -6.170706    0.000083
 N          1.137474   -6.170708   -0.000057
 C          0.722036   -4.917790   -0.000026
 C          1.491445   -3.696235   -0.000065
 C          0.707953   -2.548688   -0.000008
 H          1.194091   -1.577701   -0.000036
 C        -12.958354    2.669249   -0.000270
 C        -14.341634    2.653435   -0.000678
 C        -14.931137    3.938564   -0.000780
 C        -14.018216    4.975610   -0.000439
 S        -12.381970    4.338124    0.000086
 H        -14.907931    1.732031   -0.000928
 H        -16.004226    4.098284   -0.001146
 C        -14.256736    6.400136   -0.000444
 C        -13.347695    7.436817   -0.000697
 C        -13.950976    8.724958   -0.000615
 C        -15.321762    8.697410   -0.000306
 S        -15.896675    7.043924   -0.000055
 H        -12.273747    7.281314   -0.000973
 H        -13.385473    9.651252   -0.000799
 C         -7.266672   -6.190188    1.558891
 H         -8.319123   -6.496051    1.589991
 H         -6.653325   -7.098400    1.589511
 H         -7.055575   -5.606971    2.461317
 C         -7.266893   -6.190565   -1.557393
 H         -6.653491   -7.098744   -1.587925
 H         -8.319330   -6.496506   -1.588228
 H         -7.056003   -5.607538   -2.459990
 C        -16.280115    9.849606   -0.000233
 H        -16.929609    9.841774   -0.883992
 H        -16.929956    9.841389    0.883263
 H        -15.722847   10.791269    0.000078
 N         -9.704213    0.765483   -0.000076
 C         -0.708063   -2.548705    0.000081
 H         -1.194251   -1.577745    0.000122
 C          2.938323   -3.688451   -0.000153
 S          3.834779   -2.162441   -0.000027
 C          3.819219   -4.765192   -0.000346
 C          5.347863   -3.014500   -0.000221
 C          5.183354   -4.400867   -0.000386
 H          3.460643   -5.787060   -0.000448
 C          6.701755   -2.516281   -0.000243
Si          6.906546   -5.192070   -0.000623
 S          7.304998   -0.889661   -0.000034
 C          7.717603   -3.479649   -0.000448
 C          7.266619   -6.190150   -1.558937
 C          7.266877   -6.190575    1.557360
 C          8.965464   -1.490525   -0.000220
 C          8.994997   -2.881271   -0.000433
 H          8.319069   -6.496011   -1.590079
 H          6.653272   -7.098363   -1.589559
 H          7.055491   -5.606914   -2.461343
 H          6.653474   -7.098754    1.587879
 H          8.319313   -6.496516    1.588202
 H          7.055978   -5.607555    2.459960
 C         10.036013   -0.523280   -0.000124
 H          9.931070   -3.425586   -0.000570
 C         11.438074   -0.873098   -0.000247
 N          9.704210    0.765486    0.000110
 N         11.955249   -2.103777   -0.000472
 C         12.437784    0.178845   -0.000121
 C         10.643569    1.734085    0.000235
 S         13.588324   -1.931338   -0.000563
 N         13.690299   -0.290747   -0.000262
 C         12.026067    1.558395    0.000128
 H         10.236719    2.743040    0.000466
 C         12.958361    2.669237    0.000259
 C         14.341641    2.653414    0.000641
 S         12.381988    4.338115   -0.000067
 C         14.931153    3.938539    0.000745
 H         14.907932    1.732006    0.000869
 C         14.018238    4.975590    0.000433
 H         16.004243    4.098250    0.001093
 C         14.256763    6.400116    0.000450
 C         13.347724    7.436798    0.000745
 S         15.896704    7.043903    0.000017
 C         13.951006    8.724939    0.000661
 H         12.273775    7.281297    0.001053
 C         15.321792    8.697390    0.000309
 H         13.385503    9.651233    0.000875
 C         16.280147    9.849584    0.000221
 H         16.929670    9.841737    0.883959
 H         16.929957    9.841379   -0.883296
 H         15.722880   10.791248   -0.000056
 O          0.000050   -6.929448    0.000004
       109
T1: Total Energy = -7152.26469504
 S         -7.274089    0.854912   -0.000230
 C         -8.931688    1.472984   -0.000294
 C         -8.949286    2.875880   -0.000381
 C         -7.680491    3.460661   -0.000394
 C         -6.654642    2.482695   -0.000317
 H         -9.884095    3.422284   -0.000425
 S         -3.805198    2.109799   -0.000190
 C         -2.903770    3.645829   -0.000199
 C         -3.808235    4.735599   -0.000286
 C         -5.149594    4.373139   -0.000344
 C         -5.322590    2.965136   -0.000296
 H         -3.444078    5.755359   -0.000301
Si         -6.870958    5.174707   -0.000457
 C        -10.003699    0.527080   -0.000220
 C        -11.403482    0.887995   -0.000233
 N        -11.910962    2.121131   -0.000329
 S        -13.550985    1.961150   -0.000332
 N        -13.660098    0.316682   -0.000125
 C        -12.410795   -0.158176   -0.000113
 C        -12.006291   -1.540004    0.000010
 C        -10.616960   -1.727661   -0.000005
 H        -10.222892   -2.742149    0.000098
 C         -1.490809    3.666425   -0.000109
 C         -0.722227    4.892899   -0.000049
 N         -1.141853    6.141820   -0.000075
 N          1.141856    6.141819    0.000098
 C          0.722229    4.892898    0.000060
 C          1.490811    3.666423    0.000107
 C          0.690927    2.487365    0.000043
 H          1.190515    1.523436    0.000075
 C        -12.939036   -2.642565    0.000150
 C        -14.325779   -2.619908    0.000350
 C        -14.920935   -3.899166    0.000473
 C        -14.012975   -4.943523    0.000362
 S        -12.372593   -4.316629    0.000077
 H        -14.885162   -1.694347    0.000420
 H        -15.994825   -4.053421    0.000669
 C        -14.261567   -6.364225    0.000443
 C        -13.358702   -7.407752    0.000764
 C        -13.970229   -8.690907    0.000740
 C        -15.341453   -8.654115    0.000407
 S        -15.906028   -6.997576    0.000093
 H        -12.283815   -7.259160    0.001035
 H        -13.411263   -9.621105    0.000974
 C         -7.224545    6.169859   -1.560473
 H         -8.275840    6.479303   -1.593076
 H         -6.607656    7.075593   -1.591029
 H         -7.014281    5.584443   -2.461581
 C         -7.224673    6.170034    1.559419
 H         -6.607767    7.075758    1.589937
 H         -8.275965    6.479504    1.591889
 H         -7.014508    5.584709    2.460609
 C        -16.306542   -9.800471    0.000326
 H        -16.956184   -9.788215    0.883906
 H        -16.956085   -9.788182   -0.883324
 H        -15.755009  -10.745454    0.000341
 N         -9.676158   -0.774213   -0.000113
 C         -0.690927    2.487366   -0.000057
 H         -1.190516    1.523437   -0.000099
 C          2.903770    3.645826    0.000195
 S          3.805197    2.109795    0.000173
 C          3.808237    4.735597    0.000294
 C          5.322591    2.965132    0.000290
 C          5.149595    4.373136    0.000350
 H          3.444080    5.755357    0.000319
 C          6.654640    2.482691    0.000308
Si          6.870958    5.174705    0.000473
 S          7.274088    0.854908    0.000208
 C          7.680490    3.460658    0.000397
 C          7.224543    6.169843    1.560499
 C          7.224676    6.170045   -1.559393
 C          8.931688    1.472982    0.000283
 C          8.949284    2.875879    0.000382
 H          8.275840    6.479281    1.593109
 H          6.607657    7.075579    1.591060
 H          7.014273    5.584420    2.461601
 H          6.607773    7.075771   -1.589903
 H          8.275969    6.479512   -1.591861
 H          7.014508    5.584730   -2.460589
 C         10.003698    0.527079    0.000208
 H          9.884093    3.422283    0.000435
 C         11.403481    0.887995    0.000234
 N          9.676157   -0.774215    0.000089
 N         11.910960    2.121131    0.000343
 C         12.410795   -0.158176    0.000114
 C         10.616958   -1.727661   -0.000018
 S         13.550984    1.961151    0.000355
 N         13.660097    0.316682    0.000140
 C         12.006291   -1.540004   -0.000022
 H         10.222892   -2.742150   -0.000130
 C         12.939035   -2.642564   -0.000159
 C         14.325779   -2.619907   -0.000350
 S         12.372592   -4.316628   -0.000094
 C         14.920934   -3.899164   -0.000473
 H         14.885161   -1.694345   -0.000415
 C         14.012975   -4.943522   -0.000371
 H         15.994825   -4.053420   -0.000663
 C         14.261567   -6.364224   -0.000452
 C         13.358703   -7.407751   -0.000791
 S         15.906029   -6.997574   -0.000078
 C         13.970230   -8.690905   -0.000761
 H         12.283815   -7.259160   -0.001079
 C         15.341455   -8.654113   -0.000406
 H         13.411265   -9.621104   -0.001006
 C         16.306544   -9.800468   -0.000312
 H         16.956201   -9.788210   -0.883881
 H         16.956072   -9.788182    0.883348
 H         15.755010  -10.745451   -0.000339
 O          0.000002    6.912698    0.000019
       109
S1: Total Energy = -7152.24912987
 S         -7.280526    0.863064    0.000256
 C         -8.939239    1.477010    0.000323
 C         -8.960013    2.878729    0.000355
 C         -7.690270    3.465846    0.000306
 C         -6.665601    2.490778    0.000248
 H         -9.896159    3.422729    0.000398
 S         -3.814275    2.124848    0.000154
 C         -2.915307    3.656885    0.000119
 C         -3.810863    4.742470    0.000167
 C         -5.159314    4.380751    0.000218
 C         -5.330123    2.978256    0.000205
 H         -3.447624    5.762605    0.000160
Si         -6.880877    5.180358    0.000297
 C        -10.008459    0.526763    0.000343
 C        -11.407239    0.883915    0.000415
 N        -11.916760    2.117527    0.000461
 S        -13.559557    1.952797    0.000593
 N        -13.663457    0.304150    0.000441
 C        -12.411546   -0.164785    0.000402
 C        -12.000454   -1.544237    0.000313
 C        -10.608236   -1.729180    0.000266
 H        -10.212628   -2.743267    0.000209
 C         -1.489623    3.672207    0.000053
 C         -0.721974    4.896661    0.000023
 N         -1.140683    6.147873    0.000047
 N          1.140682    6.147873   -0.000047
 C          0.721974    4.896661   -0.000037
 C          1.489623    3.672207   -0.000070
 C          0.697640    2.506371   -0.000039
 H          1.191743    1.539529   -0.000058
 C        -12.926870   -2.648728    0.000263
 C        -14.316207   -2.630450    0.000461
 C        -14.906444   -3.909232    0.000354
 C        -13.994636   -4.953384    0.000061
 S        -12.355597   -4.322037   -0.000078
 H        -14.876438   -1.705438    0.000685
 H        -15.979854   -4.067063    0.000506
 C        -14.241215   -6.371396   -0.000120
 C        -13.335735   -7.415160   -0.000055
 C        -13.944952   -8.697607   -0.000295
 C        -15.317470   -8.662810   -0.000543
 S        -15.885337   -7.008129   -0.000487
 H        -12.261191   -7.264588    0.000177
 H        -13.385152   -9.627267   -0.000281
 C         -7.236605    6.175255   -1.559529
 H         -8.288309    6.483361   -1.591275
 H         -6.620873    7.081776   -1.590494
 H         -7.026345    5.590137   -2.460827
 C         -7.236486    6.175220    1.560172
 H         -6.620728    7.081723    1.591127
 H         -8.288181    6.483353    1.591989
 H         -7.026189    5.590070    2.461441
 C        -16.279617   -9.811136   -0.000793
 H        -16.929361   -9.800010    0.882777
 H        -16.929431   -9.799577   -0.884304
 H        -15.726269  -10.754994   -0.001044
 N         -9.672152   -0.774624    0.000275
 C         -0.697641    2.506371    0.000015
 H         -1.191743    1.539529    0.000033
 C          2.915307    3.656886   -0.000130
 S          3.814275    2.124848   -0.000169
 C          3.810863    4.742470   -0.000169
 C          5.330123    2.978256   -0.000208
 C          5.159314    4.380751   -0.000216
 H          3.447624    5.762605   -0.000158
 C          6.665601    2.490778   -0.000249
Si          6.880876    5.180358   -0.000283
 S          7.280526    0.863064   -0.000263
 C          7.690270    3.465846   -0.000298
 C          7.236598    6.175246    1.559550
 C          7.236493    6.175228   -1.560152
 C          8.939239    1.477011   -0.000319
 C          8.960013    2.878729   -0.000345
 H          8.288304    6.483346    1.591306
 H          6.620871    7.081770    1.590515
 H          7.026328    5.590124    2.460843
 H          6.620739    7.081735   -1.591101
 H          8.288189    6.483357   -1.591966
 H          7.026193    5.590085   -2.461424
 C         10.008459    0.526763   -0.000340
 H          9.896159    3.422729   -0.000382
 C         11.407239    0.883915   -0.000404
 N          9.672152   -0.774624   -0.000279
 N         11.916760    2.117527   -0.000443
 C         12.411546   -0.164785   -0.000392
 C         10.608236   -1.729180   -0.000269
 S         13.559557    1.952797   -0.000569
 N         13.663457    0.304150   -0.000424
 C         12.000453   -1.544237   -0.000310
 H         10.212628   -2.743267   -0.000219
 C         12.926870   -2.648728   -0.000260
 C         14.316207   -2.630449   -0.000454
 S         12.355598   -4.322037    0.000074
 C         14.906444   -3.909231   -0.000350
 H         14.876438   -1.705438   -0.000672
 C         13.994636   -4.953384   -0.000064
 H         15.979854   -4.067063   -0.000500
 C         14.241215   -6.371395    0.000110
 C         13.335736   -7.415160    0.000029
 S         15.885338   -7.008129    0.000489
 C         13.944953   -8.697607    0.000267
 H         12.261191   -7.264589   -0.000212
 C         15.317471   -8.662809    0.000530
 H         13.385152   -9.627267    0.000242
 C         16.279617   -9.811136    0.000783
 H         16.929371   -9.800004   -0.882781
 H         16.929423   -9.799582    0.884300
 H         15.726270  -10.754993    0.001022
 O          0.000000    6.913662   -0.000014
