        92
S0: Total Energy = -5368.05040668
 C          0.142078    0.706693   -0.828213
 C          1.363055    1.352236   -0.904457
 C          1.265598    2.759738   -0.894686
 C         -0.032011    3.238842   -0.808831
 S         -1.157014    1.884144   -0.729906
 H          2.306692    0.823273   -0.985609
 H          2.128738    3.412542   -0.967326
 C         -0.461176    4.616176   -0.743840
 C         -1.715122    5.195351   -0.925726
 S          0.746520    5.845878   -0.393847
 C         -1.675451    6.605310   -0.799164
 C         -2.989962    4.458508   -1.244716
 C         -0.431339    7.143199   -0.519529
 H         -2.560710    7.218846   -0.933465
 H         -2.863965    3.766629   -2.084902
 H         -3.347563    3.871605   -0.389497
 H         -3.780775    5.166433   -1.509226
 C         -0.100404    8.532566   -0.317173
 C          1.135247    9.175768   -0.231085
 S         -1.418174    9.685994   -0.141358
 C          0.997939   10.572296   -0.043053
 C          2.483929    8.512711   -0.332942
 C         -0.304434   11.030555    0.023841
 H          1.856407   11.232355    0.032573
 H          2.683446    7.858570    0.524714
 H          2.571936    7.901000   -1.237891
 H          3.275053    9.267331   -0.360954
 C         -0.780906   12.374291    0.202852
 C         -2.097370   12.828378    0.212695
 S          0.338158   13.698620    0.452662
 C         -2.204632   14.210226    0.413996
 C         -0.981412   14.862086    0.564628
 H         -3.147937   14.744942    0.450121
 C         -0.851680   16.259750    0.777203
 H         -1.796161   16.799231    0.817633
 C          0.253683   17.055550    0.941840
 C          0.032011   18.511090    1.149378
 C          1.588283   16.560904    0.923756
 O         -1.064152   19.041663    1.183119
 O          1.193373   19.174263    1.296219
 N          2.677465   16.144795    0.907312
 C          1.081773   20.594534    1.503340
 H          0.512245   20.803160    2.412243
 H          2.105828   20.953404    1.600912
 H          0.588089   21.066087    0.650117
 C         -0.142078   -0.706693   -0.828213
 C         -1.363055   -1.352236   -0.904457
 S          1.157014   -1.884144   -0.729906
 C         -1.265598   -2.759738   -0.894686
 H         -2.306692   -0.823273   -0.985609
 C          0.032011   -3.238842   -0.808831
 H         -2.128738   -3.412542   -0.967326
 C          0.461176   -4.616176   -0.743840
 C          1.715122   -5.195351   -0.925726
 S         -0.746520   -5.845878   -0.393847
 C          1.675451   -6.605310   -0.799164
 C          2.989962   -4.458508   -1.244716
 C          0.431339   -7.143199   -0.519529
 H          2.560710   -7.218846   -0.933465
 H          2.863965   -3.766629   -2.084902
 H          3.347563   -3.871605   -0.389497
 H          3.780775   -5.166433   -1.509226
 C          0.100404   -8.532566   -0.317173
 C         -1.135247   -9.175768   -0.231085
 S          1.418174   -9.685994   -0.141358
 C         -0.997939  -10.572296   -0.043053
 C         -2.483929   -8.512711   -0.332942
 C          0.304434  -11.030555    0.023841
 H         -1.856407  -11.232355    0.032573
 H         -2.683446   -7.858570    0.524714
 H         -2.571936   -7.901000   -1.237891
 H         -3.275053   -9.267331   -0.360954
 C          0.780906  -12.374291    0.202852
 C          2.097370  -12.828378    0.212695
 S         -0.338158  -13.698620    0.452662
 C          2.204632  -14.210226    0.413996
 C          0.981412  -14.862086    0.564628
 H          3.147937  -14.744942    0.450121
 C          0.851680  -16.259750    0.777203
 H          1.796161  -16.799231    0.817633
 C         -0.253683  -17.055550    0.941840
 C         -0.032011  -18.511090    1.149378
 C         -1.588283  -16.560904    0.923756
 O          1.064152  -19.041663    1.183119
 O         -1.193373  -19.174263    1.296219
 N         -2.677465  -16.144795    0.907312
 C         -1.081773  -20.594534    1.503340
 H         -0.512245  -20.803160    2.412243
 H         -2.105828  -20.953404    1.600912
 H         -0.588089  -21.066087    0.650117
 H         -2.949930   12.173177    0.073186
 H          2.949930  -12.173177    0.073186
        92
T1: Total Energy = -5368.00931192
 C          0.121460    0.692139   -0.072523
 C          1.356922    1.370153   -0.072301
 C          1.247051    2.749739   -0.069262
 C         -0.080189    3.236120   -0.066827
 S         -1.204068    1.864736   -0.069757
 H          2.307239    0.847291   -0.074009
 H          2.105856    3.411798   -0.068302
 C         -0.486325    4.587190   -0.060451
 C         -1.777218    5.172578   -0.057264
 S          0.757306    5.850934   -0.052287
 C         -1.730500    6.565662   -0.047667
 C         -3.074741    4.410973   -0.063382
 C         -0.447859    7.137549   -0.043215
 H         -2.630738    7.171301   -0.043847
 H         -3.167917    3.772127   -0.949692
 H         -3.172088    3.764995    0.817324
 H         -3.920767    5.103792   -0.062572
 C         -0.129360    8.519843   -0.031186
 C          1.116695    9.183077   -0.029143
 S         -1.452478    9.696633   -0.013514
 C          0.979869   10.577967   -0.013667
 C          2.462173    8.509151   -0.041950
 C         -0.332027   11.050409   -0.003108
 H          1.836640   11.244171   -0.009966
 H          2.606028    7.868251    0.836165
 H          2.595735    7.881242   -0.930969
 H          3.259687    9.257232   -0.041004
 C         -0.793350   12.397100    0.015120
 C         -2.113678   12.862161    0.026151
 S          0.337354   13.743692    0.028694
 C         -2.212110   14.252477    0.045287
 C         -0.979869   14.918909    0.049709
 H         -3.152970   14.792730    0.056312
 C         -0.842726   16.325906    0.070009
 H         -1.783771   16.872340    0.083011
 C          0.273423   17.134604    0.077268
 C          0.060802   18.601613    0.103198
 C          1.604903   16.636462    0.061640
 O         -1.032783   19.141385    0.115879
 O          1.227995   19.276157    0.111796
 N          2.694511   16.219085    0.048272
 C          1.120468   20.710214    0.137751
 H          0.592842   21.037709    1.037052
 H          2.146496   21.077245    0.140527
 H          0.586219   21.069613   -0.745292
 C         -0.121460   -0.692139   -0.072523
 C         -1.356922   -1.370153   -0.072301
 S          1.204068   -1.864736   -0.069757
 C         -1.247051   -2.749739   -0.069262
 H         -2.307239   -0.847291   -0.074009
 C          0.080189   -3.236120   -0.066827
 H         -2.105856   -3.411798   -0.068302
 C          0.486325   -4.587190   -0.060451
 C          1.777218   -5.172578   -0.057264
 S         -0.757306   -5.850934   -0.052287
 C          1.730500   -6.565662   -0.047667
 C          3.074741   -4.410973   -0.063382
 C          0.447859   -7.137549   -0.043215
 H          2.630738   -7.171301   -0.043847
 H          3.167917   -3.772127   -0.949692
 H          3.172088   -3.764995    0.817324
 H          3.920767   -5.103792   -0.062572
 C          0.129360   -8.519843   -0.031186
 C         -1.116695   -9.183077   -0.029143
 S          1.452478   -9.696633   -0.013514
 C         -0.979869  -10.577967   -0.013667
 C         -2.462173   -8.509151   -0.041950
 C          0.332027  -11.050409   -0.003108
 H         -1.836640  -11.244171   -0.009966
 H         -2.606028   -7.868251    0.836165
 H         -2.595735   -7.881242   -0.930969
 H         -3.259687   -9.257232   -0.041004
 C          0.793350  -12.397100    0.015120
 C          2.113678  -12.862161    0.026151
 S         -0.337354  -13.743692    0.028694
 C          2.212110  -14.252477    0.045287
 C          0.979869  -14.918909    0.049709
 H          3.152970  -14.792730    0.056312
 C          0.842726  -16.325906    0.070009
 H          1.783771  -16.872340    0.083011
 C         -0.273423  -17.134604    0.077268
 C         -0.060802  -18.601613    0.103198
 C         -1.604903  -16.636462    0.061640
 O          1.032783  -19.141385    0.115879
 O         -1.227995  -19.276157    0.111796
 N         -2.694511  -16.219085    0.048272
 C         -1.120468  -20.710214    0.137751
 H         -0.592842  -21.037709    1.037052
 H         -2.146496  -21.077245    0.140527
 H         -0.586219  -21.069613   -0.745292
 H         -2.971308   12.198508    0.020652
 H          2.971308  -12.198508    0.020652
        92
S1: Total Energy = -5367.99439806
 C          0.125062    0.694835   -0.137839
 C          1.358079    1.365809   -0.137506
 C          1.249802    2.750289   -0.131723
 C         -0.073506    3.232244   -0.127118
 S         -1.195294    1.866430   -0.132369
 H          2.308071    0.842523   -0.140817
 H          2.109217    3.411208   -0.130025
 C         -0.486539    4.587936   -0.115070
 C         -1.774056    5.165776   -0.110951
 S          0.752946    5.851275   -0.097040
 C         -1.730671    6.564316   -0.092496
 C         -3.070758    4.403660   -0.124807
 C         -0.451624    7.132391   -0.081960
 H         -2.631718    7.168245   -0.086940
 H         -3.159237    3.766940   -1.013265
 H         -3.171282    3.755374    0.754037
 H         -3.917480    5.095356   -0.125994
 C         -0.127689    8.519869   -0.058366
 C          1.115072    9.177726   -0.055243
 S         -1.449162    9.695950   -0.022934
 C          0.980754   10.577146   -0.025092
 C          2.460550    8.504410   -0.080981
 C         -0.328710   11.047778   -0.003800
 H          1.838369   11.241922   -0.018620
 H          2.610593    7.858595    0.792699
 H          2.588245    7.881308   -0.974388
 H          3.258124    9.252300   -0.081222
 C         -0.792535   12.396883    0.031400
 C         -2.111001   12.861965    0.053165
 S          0.339564   13.742920    0.056217
 C         -2.210211   14.252824    0.089231
 C         -0.977523   14.919843    0.096674
 H         -3.151141   14.792576    0.110534
 C         -0.837310   16.325325    0.134037
 H         -1.776987   16.873559    0.158776
 C          0.282669   17.133738    0.146352
 C          0.073506   18.597914    0.193765
 C          1.612710   16.634719    0.116607
 O         -1.018745   19.142304    0.218712
 O          1.242926   19.272598    0.207594
 N          2.702656   16.217241    0.091178
 C          1.135328   20.705135    0.255175
 H          0.611620   21.020249    1.161354
 H          2.161275   21.072833    0.258922
 H          0.597175   21.078562   -0.619818
 C         -0.125062   -0.694835   -0.137839
 C         -1.358079   -1.365809   -0.137506
 S          1.195294   -1.866430   -0.132369
 C         -1.249802   -2.750289   -0.131723
 H         -2.308071   -0.842523   -0.140817
 C          0.073506   -3.232244   -0.127118
 H         -2.109217   -3.411208   -0.130025
 C          0.486539   -4.587936   -0.115070
 C          1.774056   -5.165776   -0.110951
 S         -0.752946   -5.851275   -0.097040
 C          1.730671   -6.564316   -0.092496
 C          3.070758   -4.403660   -0.124807
 C          0.451624   -7.132391   -0.081960
 H          2.631718   -7.168245   -0.086940
 H          3.159237   -3.766940   -1.013265
 H          3.171282   -3.755374    0.754037
 H          3.917480   -5.095356   -0.125994
 C          0.127689   -8.519869   -0.058366
 C         -1.115072   -9.177726   -0.055243
 S          1.449162   -9.695950   -0.022934
 C         -0.980754  -10.577146   -0.025092
 C         -2.460550   -8.504410   -0.080981
 C          0.328710  -11.047778   -0.003800
 H         -1.838369  -11.241922   -0.018620
 H         -2.610593   -7.858595    0.792699
 H         -2.588245   -7.881308   -0.974388
 H         -3.258124   -9.252300   -0.081222
 C          0.792535  -12.396883    0.031400
 C          2.111001  -12.861965    0.053165
 S         -0.339564  -13.742920    0.056217
 C          2.210211  -14.252824    0.089231
 C          0.977523  -14.919843    0.096674
 H          3.151141  -14.792576    0.110534
 C          0.837310  -16.325325    0.134037
 H          1.776987  -16.873559    0.158776
 C         -0.282669  -17.133738    0.146352
 C         -0.073506  -18.597914    0.193765
 C         -1.612710  -16.634719    0.116607
 O          1.018745  -19.142304    0.218712
 O         -1.242926  -19.272598    0.207594
 N         -2.702656  -16.217241    0.091178
 C         -1.135328  -20.705135    0.255175
 H         -0.611620  -21.020249    1.161354
 H         -2.161275  -21.072833    0.258922
 H         -0.597175  -21.078562   -0.619818
 H         -2.969348   12.198926    0.043374
 H          2.969348  -12.198926    0.043374
