        94
S0: Total Energy = -5552.59314084
 N        -12.484066    1.840026    0.004642
 C        -13.915867    1.815837    0.032897
 C        -14.242601    0.409271    0.051031
 C        -15.324400   -0.475172    0.079530
 N        -14.790553   -1.761140    0.080310
 C        -13.357693   -1.737797    0.051723
 C        -13.030823   -0.332228    0.033670
 C        -11.948091    0.553009    0.005213
 O        -14.595821    2.842830    0.037746
 O        -12.678220   -2.765634    0.046506
 C        -10.554924    0.213436   -0.018268
 C        -10.055521   -1.086287   -0.017985
 C         -8.653227   -1.155071   -0.044463
 C         -8.027632    0.083624   -0.065812
 S         -9.219937    1.366977   -0.050499
 H        -10.712360   -1.950162    0.000332
 H         -8.105770   -2.091486   -0.050586
 C        -16.723599   -0.136512    0.102923
 C        -17.223615    1.159607    0.100642
 C        -18.637605    1.219805    0.126155
 C        -19.225746   -0.019374    0.147909
 S        -18.057441   -1.291179    0.137599
 H        -16.569274    2.025161    0.080735
 H        -19.199866    2.146839    0.128305
 C         -6.620633    0.383643   -0.095231
 C         -5.991134    1.615578   -0.149633
 C         -4.582855    1.536699   -0.168064
 C         -4.094602    0.241634   -0.128207
 S         -5.424523   -0.905538   -0.060286
 H         -6.533236    2.554638   -0.180809
 C        -11.786252    3.114427   -0.021292
 H        -11.150726    3.241678    0.860439
 H        -11.183839    3.223195   -0.928349
 H        -12.559399    3.884498   -0.014887
 C        -15.488762   -3.035417    0.106089
 H        -16.124857   -3.161452   -0.775320
 H        -16.091832   -3.143133    1.012754
 H        -14.716127   -3.805900    0.099723
 H        -20.279754   -0.263245    0.169335
 C         -2.728069   -0.212045   -0.133983
 C         -2.240378   -1.507054   -0.181242
 S         -1.397371    0.934714   -0.072723
 C         -0.832105   -1.586380   -0.173683
 H         -2.884067   -2.378912   -0.227859
 C         -0.201778   -0.354639   -0.120528
 H         -0.290463   -2.525434   -0.211837
 H         -3.939739    2.408830   -0.216999
 C          1.205287   -0.055418   -0.100605
 C          1.832175    1.182837   -0.083460
 S          2.396982   -1.339741   -0.092811
 C          3.234337    1.113253   -0.065931
 H          1.285314    2.119644   -0.086281
 C          3.733189   -0.187120   -0.069198
 H          3.891969    1.976581   -0.051784
 C          5.125344   -0.528260   -0.053623
 C          6.210547    0.355738   -0.030071
 N          5.660592   -1.815634   -0.057655
 C          6.539034    1.762016   -0.011731
 C          7.419833   -0.386539   -0.018703
 C          7.091866   -1.792459   -0.036027
 C          4.961808   -3.089551   -0.081123
 N          7.970130    1.785176    0.011051
 O          5.858764    2.789341   -0.013186
 C          8.505356    0.497908    0.006796
 O          7.772021   -2.820133   -0.034960
 H          4.354103   -3.196720   -0.984826
 H          4.331193   -3.217384    0.804056
 H          5.734431   -3.860173   -0.080033
 C          8.669268    3.058990    0.033712
 C          9.897076    0.157236    0.024870
 H          9.274563    3.167749    0.938818
 H          9.302461    3.184288   -0.849939
 H          7.897115    3.830041    0.028846
 C         10.395752   -1.143049    0.018972
 S         11.234555    1.309268    0.057545
 C         11.797981   -1.213300    0.043869
 H          9.737936   -2.006211    0.000096
 C         12.425086    0.024501    0.069841
 H         12.344846   -2.150035    0.049541
 C         13.833023    0.322962    0.101008
 C         14.464207    1.548719    0.212164
 S         15.028757   -0.963128   -0.010715
 C         15.874622    1.466278    0.221089
 H         13.923910    2.485469    0.298912
 C         16.359012    0.175914    0.116012
 H         16.520744    2.332073    0.318433
 C         17.729656   -0.284141    0.097762
 C         18.215928   -1.571729    0.203510
 S         19.060984    0.850997   -0.081472
 C         19.635476   -1.650536    0.147576
 H         17.573340   -2.436505    0.331769
 C         20.231294   -0.427399    0.000556
 H         20.189530   -2.579896    0.219597
 H         21.285616   -0.194842   -0.065618
        94
T1: Total Energy = -5552.56291632
 N        -12.475115    1.847839    0.000784
 C        -13.906426    1.825667   -0.000668
 C        -14.236012    0.419258   -0.002981
 C        -15.320499   -0.463158   -0.005453
 N        -14.788745   -1.749970   -0.006811
 C        -13.355706   -1.729046   -0.005254
 C        -13.026091   -0.324156   -0.002838
 C        -11.940202    0.559747   -0.000548
 O        -14.585372    2.853457    0.000111
 O        -12.677984   -2.758430   -0.005989
 C        -10.549432    0.218430    0.000183
 C        -10.051933   -1.083797   -0.001264
 C         -8.651564   -1.156397   -0.000295
 C         -8.020247    0.082009    0.001933
 S         -9.210713    1.369254    0.002794
 H        -10.711510   -1.945821   -0.003011
 H         -8.106386   -2.094159   -0.001168
 C        -16.718989   -0.121849   -0.006414
 C        -17.216973    1.175179   -0.004805
 C        -18.631089    1.237613   -0.006242
 C        -19.221743   -0.000549   -0.008940
 S        -18.055333   -1.274406   -0.009775
 H        -16.560946    2.039673   -0.002670
 H        -19.191723    2.165657   -0.005309
 C         -6.615694    0.375637    0.003348
 C         -5.979963    1.609147    0.005952
 C         -4.575863    1.528707    0.006589
 C         -4.086439    0.228252    0.004480
 S         -5.422366   -0.918721    0.001645
 H         -6.520477    2.549707    0.007376
 C        -11.774974    3.121207    0.003384
 H        -11.156333    3.236750    0.898619
 H        -11.154889    3.239619   -0.890479
 H        -12.546820    3.892627    0.003996
 C        -15.489373   -3.023117   -0.009377
 H        -16.108438   -3.137679   -0.904379
 H        -16.110268   -3.140271    0.884022
 H        -14.717996   -3.794910   -0.009718
 H        -20.276358   -0.242697   -0.010482
 C         -2.727682   -0.221049    0.004324
 C         -2.238549   -1.524302    0.002490
 S         -1.391140    0.926740    0.006513
 C         -0.840294   -1.610706    0.002762
 H         -2.887386   -2.393726    0.000958
 C         -0.194635   -0.372365    0.004832
 H         -0.301634   -2.552090    0.001438
 H         -3.930316    2.400336    0.008556
 C          1.195809   -0.091900    0.005532
 C          1.843000    1.153937    0.007079
 S          2.389113   -1.391556    0.004260
 C          3.226485    1.084358    0.007182
 H          1.296581    2.091287    0.008032
 C          3.739122   -0.236883    0.005711
 H          3.887121    1.944911    0.008200
 C          5.098380   -0.569181    0.005350
 C          6.218762    0.336840    0.006142
 N          5.663365   -1.846581    0.003997
 C          6.542414    1.756572    0.007463
 C          7.402135   -0.383871    0.005190
 C          7.078249   -1.805867    0.003836
 C          4.976754   -3.128794    0.002970
 N          7.959696    1.795319    0.007140
 O          5.841442    2.771356    0.008664
 C          8.520659    0.518769    0.005736
 O          7.782107   -2.817476    0.002796
 H          4.358288   -3.246780   -0.891584
 H          4.358273   -3.248175    0.897328
 H          5.753479   -3.894724    0.002366
 C          8.647062    3.077068    0.008290
 C          9.885451    0.183784    0.004896
 H          9.265995    3.194426    0.902626
 H          9.265253    3.196438   -0.886297
 H          7.870416    3.843087    0.009462
 C         10.397302   -1.131656    0.003628
 S         11.231812    1.339528    0.004890
 C         11.786348   -1.198368    0.002864
 H          9.739462   -1.994248    0.003441
 C         12.425843    0.045230    0.003499
 H         12.334359   -2.134720    0.002253
 C         13.822576    0.334372    0.002724
 C         14.462136    1.568722    0.008469
 S         15.020047   -0.961068   -0.007398
 C         15.867170    1.483172    0.007594
 H         13.923585    2.510274    0.015394
 C         16.352901    0.185200    0.000786
 H         16.515101    2.353149    0.015345
 C         17.720914   -0.271799   -0.001044
 C         18.206649   -1.565055    0.041348
 S         19.057962    0.871380   -0.064523
 C         19.626267   -1.641185    0.024841
 H         17.562160   -2.436662    0.086763
 C         20.225529   -0.411617   -0.029899
 H         20.178859   -2.573729    0.053916
 H         21.281171   -0.176772   -0.052205
        94
S1: Total Energy = -5552.53951062
 N        -12.466624    1.852388   -0.007918
 C        -13.892495    1.823416   -0.017828
 C        -14.219026    0.413447   -0.023692
 C        -15.309709   -0.471398   -0.034005
 N        -14.771831   -1.755513   -0.033799
 C        -13.340132   -1.730684   -0.023286
 C        -13.013377   -0.324937   -0.017124
 C        -11.919749    0.565522   -0.007481
 O        -14.579420    2.847000   -0.020005
 O        -12.659331   -2.760359   -0.020935
 C        -10.540765    0.231190    0.000461
 C        -10.036338   -1.080127    0.000953
 C         -8.646749   -1.154265    0.008767
 C         -8.002890    0.089997    0.014595
 S         -9.197812    1.384168    0.010362
 H        -10.698934   -1.939948   -0.004671
 H         -8.101846   -2.092374    0.010033
 C        -16.703640   -0.131472   -0.042769
 C        -17.207579    1.166218   -0.042219
 C        -18.620549    1.224060   -0.051866
 C        -19.210358   -0.015386   -0.059805
 S        -18.040235   -1.287786   -0.055624
 H        -16.553403    2.032018   -0.034956
 H        -19.183435    2.150941   -0.052886
 C         -6.613137    0.371899    0.022138
 C         -5.967942    1.615080    0.026483
 C         -4.576048    1.535717    0.032508
 C         -4.076363    0.227016    0.033276
 S         -5.415848   -0.925979    0.026383
 H         -6.511309    2.553826    0.024905
 C        -11.772003    3.128471    0.000918
 H        -11.158217    3.244491    0.899482
 H        -11.147084    3.250945   -0.889086
 H        -12.546542    3.897196   -0.001172
 C        -15.468163   -3.030555   -0.043159
 H        -16.082165   -3.144922   -0.941797
 H        -16.094462   -3.151459    0.846097
 H        -14.694341   -3.799940   -0.040659
 H        -20.264501   -0.259257   -0.067811
 C         -2.729351   -0.208902    0.037711
 C         -2.232593   -1.521038    0.039512
 S         -1.390141    0.941190    0.040629
 C         -0.842822   -1.603416    0.042852
 H         -2.881998   -2.389705    0.038280
 C         -0.192982   -0.360663    0.043719
 H         -0.301891   -2.543731    0.044384
 H         -3.929631    2.406899    0.036227
 C          1.192952   -0.083724    0.045317
 C          1.839112    1.164788    0.044752
 S          2.386494   -1.379441    0.046729
 C          3.224011    1.090795    0.044768
 H          1.292875    2.101825    0.043914
 C          3.731594   -0.224864    0.045523
 H          3.886384    1.950789    0.043655
 C          5.103088   -0.555840    0.043702
 C          6.203656    0.342361    0.038544
 N          5.656052   -1.836926    0.044910
 C          6.525186    1.754477    0.032806
 C          7.402135   -0.386312    0.035596
 C          7.080071   -1.801102    0.040027
 C          4.965874   -3.116668    0.051234
 N          7.952759    1.788008    0.025872
 O          5.835791    2.775750    0.033386
 C          8.501527    0.508081    0.027034
 O          7.773649   -2.818304    0.040349
 H          4.345876   -3.239525   -0.841797
 H          4.349153   -3.232279    0.947475
 H          5.741836   -3.883607    0.052809
 C          8.643323    3.067267    0.019704
 C          9.878367    0.171602    0.019366
 H          9.267597    3.187776    0.910171
 H          9.255817    3.185700   -0.879206
 H          7.866926    3.833851    0.023797
 C         10.385344   -1.137935    0.021994
 S         11.219092    1.326957    0.002335
 C         11.777582   -1.205623    0.010366
 H          9.727283   -2.000888    0.031586
 C         12.412429    0.038707   -0.001912
 H         12.326048   -2.141519    0.010287
 C         13.809836    0.328652   -0.017402
 C         14.449003    1.563837   -0.028836
 S         15.006666   -0.966588   -0.026656
 C         15.852009    1.479024   -0.043915
 H         13.910261    2.505335   -0.025821
 C         16.338414    0.178897   -0.044757
 H         16.499880    2.348904   -0.053501
 C         17.704992   -0.274746   -0.058399
 C         18.193209   -1.569392   -0.051386
 S         19.040954    0.872067   -0.088791
 C         19.611437   -1.642371   -0.069703
 H         17.550148   -2.442988   -0.032960
 C         20.208713   -0.409589   -0.090766
 H         20.166162   -2.574016   -0.067147
 H         21.264170   -0.173255   -0.107220
