       102
S0: Total Energy = -5673.32592894
 C         16.992884    1.178928    0.035860
 C         16.462540   -0.079444   -0.097978
 H         17.207157   -0.864918   -0.212721
 C         15.118238   -0.535768   -0.112424
 C         14.754149   -1.869487   -0.265700
 C         13.370562   -2.124875   -0.254471
 C         12.627880   -0.946952   -0.086071
 S         13.677684    0.454454    0.056744
 H         15.496119   -2.652687   -0.387515
 C         11.204101   -0.738621   -0.019841
 C         10.536502    0.471363    0.118898
 C          9.137895    0.355269    0.169576
 C          8.672970   -0.950319    0.070624
 S         10.031825   -2.051059   -0.091005
 H         11.049828    1.424359    0.187786
 H          8.479086    1.208704    0.285471
 C          7.299785   -1.393110    0.069647
 C          6.748720   -2.670716    0.135399
 C          5.329944   -2.643209    0.125119
 C          4.769460   -1.384602    0.051338
 S          6.030997   -0.172044   -0.023003
 H          4.734033   -3.548342    0.184160
 C          3.374206   -1.017732    0.027747
 C          2.819872    0.236584    0.068784
 C          1.389911    0.238954    0.029142
 C          0.855431   -1.080972   -0.026375
 S          2.132104   -2.287850   -0.066799
 H          3.407483    1.144335    0.147050
 C          0.510121    1.339028    0.054821
 C         -0.510115   -1.338749   -0.048202
 C         -0.855419    1.081249    0.032967
 C         -1.389899   -0.238674   -0.022554
 C         -2.819854   -0.236303   -0.062181
 C         -3.374196    1.018019   -0.021231
 S         -2.132069    2.288147    0.073155
 H         -3.407442   -1.144097   -0.140121
 C         -4.769436    1.384894   -0.044980
 C         -5.329903    2.643713   -0.115239
 C         -6.748658    2.671230   -0.126784
 C         -7.299777    1.393402   -0.065612
 S         -6.031021    0.172053    0.023959
 H         -4.733986    3.549083   -0.170446
 C         -8.672939    0.950608   -0.069103
 C         -9.137711   -0.354902   -0.169972
 C        -10.536405   -0.471003   -0.122235
 C        -11.204275    0.738888    0.016062
 S        -10.032117    2.051252    0.090582
 H         -8.478724   -1.208293   -0.285172
 H        -11.049598   -1.423928   -0.193065
 C        -12.628147    0.947134    0.080176
 C        -13.371245    2.125450    0.243993
 C        -14.754799    1.869886    0.254129
 C        -15.118489    0.535641    0.104509
 S        -13.677548   -0.454920   -0.059341
 H        -15.497051    2.653373    0.372339
 H        -17.207573    0.864865    0.200668
 C        -16.462708    0.079115    0.089490
 C        -16.992729   -1.179727   -0.041204
 C         12.807963   -3.513040   -0.411799
 H         12.232342   -3.824481    0.467929
 H         12.145517   -3.590428   -1.281928
 H         13.618683   -4.234314   -0.547937
 C          7.518563   -3.962217    0.222577
 H          8.092691   -4.158786   -0.691324
 H          8.226747   -3.961533    1.059313
 H          6.833368   -4.802378    0.366827
 C         -7.518411    3.963015   -0.210420
 H         -8.224341    3.965869   -1.049074
 H         -8.095025    4.155593    0.702754
 H         -6.832932    4.803855   -0.349249
 C        -12.809115    3.514231    0.397497
 H        -12.149585    3.595196    1.269523
 H        -12.230545    3.822037   -0.481567
 H        -13.620268    4.236056    0.528011
 C         18.473406    1.311478    0.009412
 O         19.245273    0.378218   -0.123466
 O         18.859946    2.592557    0.150812
 C         16.202651    2.351907    0.196180
 N         15.546849    3.307260    0.326411
 C         20.280831    2.823104    0.137731
 H         20.399911    3.898917    0.262135
 H         20.761615    2.285002    0.958336
 H         20.711046    2.495229   -0.811721
 C        -18.473274   -1.312326   -0.016529
 O        -19.245406   -0.378730    0.112392
 O        -18.859520   -2.593858   -0.154604
 C        -16.202145   -2.353119   -0.196669
 N        -15.546041   -3.308803   -0.322903
 C        -20.280412   -2.824439   -0.142936
 H        -20.760000   -2.288865   -0.965896
 H        -20.399258   -3.900633   -0.264233
 H        -20.712057   -2.493684    0.804864
 O          0.979547    2.629186    0.141038
 O         -0.979645   -2.628871   -0.134416
 C          1.327833    3.223853   -1.121298
 H          0.456427    3.273562   -1.784123
 H          1.675105    4.233553   -0.895066
 H          2.128275    2.660678   -1.614523
 C         -1.327150   -3.223788    1.128017
 H         -1.674941   -4.233305    0.901763
 H         -0.455254   -3.273992    1.790161
 H         -2.127020   -2.660473    1.622010
       102
T1: Total Energy = -5673.28100474
 C         16.969700    1.141443    0.011673
 C         16.436459   -0.117879   -0.098520
 H         17.179233   -0.907771   -0.192839
 C         15.090641   -0.570315   -0.110543
 C         14.723228   -1.905981   -0.237024
 C         13.338874   -2.156811   -0.227472
 C         12.599071   -0.973152   -0.087936
 S         13.652698    0.428032    0.028288
 H         15.463323   -2.693979   -0.337316
 C         11.176067   -0.759307   -0.031191
 C         10.512346    0.454374    0.099397
 C          9.113564    0.344739    0.135017
 C          8.643064   -0.959397    0.032495
 S          9.999303   -2.066657   -0.112551
 H         11.029266    1.405079    0.172315
 H          8.457920    1.201892    0.241105
 C          7.268986   -1.394567    0.023815
 C          6.711666   -2.673164    0.038261
 C          5.295124   -2.639499    0.035495
 C          4.738192   -1.375171    0.017765
 S          6.005386   -0.165100   -0.005555
 H          4.695681   -3.544034    0.053494
 C          3.347587   -1.004622    0.014516
 C          2.798034    0.256512    0.052257
 C          1.373088    0.266158    0.037585
 C          0.828739   -1.052505    0.004513
 S          2.097336   -2.267674   -0.043376
 H          3.392299    1.161584    0.106929
 C          0.498081    1.375661    0.068162
 C         -0.535832   -1.301997    0.011113
 C         -0.865398    1.128495    0.074466
 C         -1.411974   -0.192116    0.040914
 C         -2.830711   -0.185803    0.027435
 C         -3.389472    1.084229    0.067319
 S         -2.131933    2.347870    0.123457
 H         -3.425063   -1.090783   -0.025205
 C         -4.763078    1.436761    0.067549
 C         -5.336047    2.715953    0.103410
 C         -6.726926    2.756343    0.095961
 C         -7.309251    1.452052    0.051315
 S         -6.031130    0.214685    0.021588
 H         -4.730495    3.616096    0.135169
 C         -8.647050    1.042772    0.029487
 C         -9.126761   -0.295706   -0.015373
 C        -10.492950   -0.419927   -0.028102
 C        -11.201542    0.819426    0.005732
 S        -10.036379    2.157334    0.054725
 H         -8.455698   -1.147456   -0.037709
 H        -11.004008   -1.375224   -0.061191
 C        -12.589831    0.981905    0.001975
 C        -13.397381    2.163355    0.032284
 C        -14.749825    1.872920    0.014704
 C        -15.086767    0.498686   -0.028009
 S        -13.618127   -0.472075   -0.047550
 H        -15.520050    2.637619    0.032357
 H        -17.175730    0.779602   -0.033878
 C        -16.403424    0.013973   -0.049998
 C        -16.898106   -1.285448   -0.088657
 C         12.772888   -3.546481   -0.356127
 H         12.183233   -3.832057    0.523045
 H         12.122965   -3.644701   -1.233627
 H         13.582537   -4.274075   -0.461320
 C          7.476899   -3.969900    0.064095
 H          8.069272   -4.113601   -0.847837
 H          8.167527   -4.020970    0.914003
 H          6.787354   -4.814895    0.145038
 C         -7.498049    4.047394    0.131871
 H         -8.133118    4.169166   -0.753556
 H         -8.147636    4.111043    1.012816
 H         -6.809488    4.896283    0.165577
 C        -12.867546    3.570064    0.078311
 H        -12.255396    3.745936    0.970904
 H        -12.246097    3.800372   -0.795296
 H        -13.695272    4.284346    0.096041
 C         18.450899    1.269232   -0.010259
 O         19.220295    0.331055   -0.120348
 O         18.840478    2.551702    0.106787
 C         16.181995    2.319662    0.143485
 N         15.527960    3.279103    0.250411
 C         20.262173    2.777936    0.095567
 H         20.383807    3.855632    0.199390
 H         20.737697    2.254602    0.928684
 H         20.695497    2.430291   -0.845388
 C        -18.365967   -1.459911   -0.102606
 O        -19.172841   -0.543670   -0.082782
 O        -18.718665   -2.762862   -0.139996
 C        -16.075851   -2.440941   -0.113729
 N        -15.394798   -3.389857   -0.133730
 C        -20.131510   -3.025518   -0.155436
 H        -20.595434   -2.576863   -1.037630
 H        -20.224194   -4.111025   -0.185106
 H        -20.605974   -2.624628    0.743970
 O          0.980146    2.661538    0.133210
 O         -1.016555   -2.587115   -0.052109
 C          1.316313    3.239958   -1.140609
 H          0.435532    3.292313   -1.790541
 H          1.677533    4.247854   -0.929208
 H          2.103311    2.663285   -1.639609
 C         -1.355087   -3.165964    1.221495
 H         -1.716814   -4.173299    1.008749
 H         -0.474871   -3.219189    1.871973
 H         -2.142133   -2.588544    1.719318
       102
S1: Total Energy = -5673.26276455
 C         16.925115    1.214320    0.050791
 C         16.411058   -0.066966    0.009065
 H         17.169515   -0.846745   -0.016242
 C         15.079408   -0.539685   -0.006767
 C         14.727100   -1.892160   -0.054597
 C         13.352740   -2.161087   -0.063866
 C         12.584886   -0.979125   -0.021067
 S         13.622950    0.447209    0.028789
 H         15.480317   -2.673632   -0.082653
 C         11.170125   -0.786127   -0.013528
 C         10.486361    0.435149    0.036164
 C          9.098496    0.316929    0.029229
 C          8.629520   -1.001995   -0.026256
 S         10.004971   -2.109160   -0.069741
 H         10.997035    1.390755    0.076966
 H          8.434602    1.173846    0.064368
 C          7.271694   -1.428983   -0.047106
 C          6.707500   -2.722699   -0.099241
 C          5.307096   -2.692997   -0.102173
 C          4.733770   -1.420809   -0.055205
 S          6.001402   -0.201465   -0.004194
 H          4.708409   -3.597503   -0.138601
 C          3.360944   -1.068087   -0.048888
 C          2.802910    0.209113    0.002760
 C          1.395757    0.221075   -0.010225
 C          0.839555   -1.100406   -0.051668
 S          2.102954   -2.323746   -0.112841
 H          3.403047    1.109659    0.063569
 C          0.518435    1.342192    0.034261
 C         -0.518418   -1.342311   -0.034702
 C         -0.839538    1.100287    0.051231
 C         -1.395740   -0.221194    0.009792
 C         -2.802895   -0.209230   -0.003144
 C         -3.360926    1.067970    0.048536
 S         -2.102932    2.323627    0.112456
 H         -3.403036   -1.109775   -0.063931
 C         -4.733749    1.420701    0.054941
 C         -5.307057    2.692892    0.102051
 C         -6.707459    2.722612    0.099209
 C         -7.271673    1.428908    0.046996
 S         -6.001399    0.201376    0.003916
 H         -4.708356    3.597388    0.138513
 C         -8.629507    1.001944    0.026180
 C         -9.098512   -0.316961   -0.029525
 C        -10.486381   -0.435155   -0.036335
 C        -11.170117    0.786123    0.013694
 S        -10.004933    2.109122    0.070039
 H         -8.434637   -1.173882   -0.064924
 H        -10.997076   -1.390743   -0.077281
 C        -12.584874    0.979149    0.021425
 C        -13.352696    2.161117    0.064638
 C        -14.727063    1.892225    0.055415
 C        -15.079406    0.539772    0.007223
 S        -13.622976   -0.447146   -0.028738
 H        -15.480260    2.673705    0.083763
 H        -17.169503    0.846888    0.016968
 C        -16.411072    0.067094   -0.008628
 C        -16.925171   -1.214164   -0.050676
 C         12.806766   -3.563200   -0.113942
 H         12.186792   -3.793531    0.760839
 H         12.190621   -3.731762   -1.005366
 H         13.627065   -4.286085   -0.137510
 C          7.483201   -4.011493   -0.147369
 H          8.128900   -4.066583   -1.031811
 H          8.123490   -4.136234    0.733916
 H          6.798416   -4.863319   -0.183262
 C         -7.483138    4.011414    0.147480
 H         -8.123535    4.136194   -0.733721
 H         -8.128726    4.066481    1.032004
 H         -6.798336    4.863229    0.183320
 C        -12.806691    3.563205    0.115080
 H        -12.190431    3.731478    1.006480
 H        -12.186821    3.793799   -0.759706
 H        -13.626974    4.286097    0.138975
 C         18.397464    1.365382    0.056116
 O         19.190034    0.437602    0.026114
 O         18.769011    2.662477    0.098487
 C         16.119044    2.383992    0.086924
 N         15.450376    3.340522    0.115665
 C         20.185738    2.905265    0.105863
 H         20.293773    3.989075    0.143713
 H         20.649495    2.442706    0.980901
 H         20.647826    2.505204   -0.800309
 C        -18.397525   -1.365176   -0.055905
 O        -19.190059   -0.437379   -0.025480
 O        -18.769123   -2.662247   -0.098568
 C        -16.119138   -2.383848   -0.087222
 N        -15.450500   -3.340389   -0.116326
 C        -20.185860   -2.904983   -0.105784
 H        -20.649747   -2.442141   -0.980604
 H        -20.293940   -3.988778   -0.143943
 H        -20.647783   -2.505181    0.800587
 O          1.006624    2.621008    0.105782
 O         -1.006606   -2.621129   -0.106215
 C          1.396481    3.194331   -1.157383
 H          0.537179    3.261985   -1.833512
 H          1.767928    4.194811   -0.931063
 H          2.188670    2.603962   -1.630424
 C         -1.396418   -3.194462    1.156959
 H         -1.767868   -4.194942    0.930645
 H         -0.537093   -3.262117    1.833059
 H         -2.188593   -2.604101    1.630032
