       114
S0: Total Energy = -6626.54933913
 C         17.001045   -0.994522    0.038328
 C         16.458725    0.261613   -0.066791
 H         17.196058    1.056887   -0.158841
 C         15.110214    0.704941   -0.076003
 C         14.733486    2.038497   -0.197432
 C         13.347518    2.280009   -0.186185
 C         12.615608    1.091012   -0.050622
 S         13.678684   -0.303352    0.060580
 H         15.468131    2.831844   -0.295774
 C         11.193857    0.867349    0.004809
 C         10.537939   -0.351178    0.123659
 C          9.137942   -0.250398    0.165748
 C          8.659895    1.051466    0.079734
 S         10.008192    2.168294   -0.058278
 H         11.060763   -1.299523    0.185077
 H          8.487195   -1.111881    0.266560
 C          7.282130    1.479529    0.074536
 C          6.717152    2.750602    0.152303
 C          5.298972    2.708279    0.132526
 C          4.752733    1.444474    0.039887
 S          6.027354    0.246626   -0.043821
 H          4.692434    3.605520    0.202787
 C          3.361728    1.062797    0.004969
 C          2.821125   -0.194607    0.080904
 C          1.390815   -0.223078    0.017976
 C          0.838319    1.086903   -0.097800
 S          2.109535    2.306729   -0.156070
 H          3.423852   -1.086290    0.204666
 C          0.535059   -1.350141    0.113528
 C         -0.535058    1.350135   -0.113696
 C         -0.838318   -1.086909    0.097632
 C         -1.390814    0.223072   -0.018143
 C         -2.821125    0.194602   -0.081065
 C         -3.361728   -1.062802   -0.005127
 S         -2.109534   -2.306736    0.155899
 H         -3.423851    1.086285   -0.204822
 C         -4.752733   -1.444477   -0.040034
 C         -5.298974   -2.708281   -0.132682
 C         -6.717155   -2.750603   -0.152437
 C         -7.282131   -1.479531   -0.074640
 S         -6.027352   -0.246629    0.043697
 H         -4.692438   -3.605522   -0.202961
 C         -8.659896   -1.051467   -0.079802
 C         -9.137944    0.250397   -0.165810
 C        -10.537940    0.351178   -0.123672
 C        -11.193856   -0.867347   -0.004792
 S        -10.008190   -2.168294    0.058247
 H         -8.487199    1.111878   -0.266645
 H        -11.060765    1.299524   -0.185075
 C        -12.615604   -1.091008    0.050695
 C        -13.347511   -2.280005    0.186280
 C        -14.733477   -2.038491    0.197588
 C        -15.110209   -0.704933    0.076189
 S        -13.678684    0.303358   -0.060456
 H        -15.468120   -2.831838    0.295958
 H        -17.196049   -1.056878    0.159123
 C        -16.458720   -0.261604    0.067043
 C        -17.001045    0.994532   -0.038043
 C          1.044192   -2.727547    0.225459
 C          0.742822   -3.671676    1.176936
 C          1.379086   -4.929491    0.958107
 C          2.166066   -4.964802   -0.162509
 S          2.129962   -3.417306   -0.976769
 H          0.099001   -3.463764    2.024807
 H          1.261826   -5.783556    1.617581
 C         -1.044192    2.727540   -0.225627
 C         -0.742827    3.671668   -1.177106
 C         -1.379088    4.929484   -0.958273
 C         -2.166063    4.964795    0.162345
 S         -2.129970    3.417294    0.976596
 H         -0.099008    3.463756   -2.024979
 H         -1.261827    5.783551   -1.617745
 C         12.772153    3.666331   -0.310184
 H         12.117403    3.761690   -1.184384
 H         12.184849    3.947041    0.572124
 H         13.576747    4.399173   -0.418062
 C          7.472722    4.048823    0.261715
 H          8.174151    4.045200    1.104141
 H          8.052153    4.262692   -0.644956
 H          6.777524    4.879889    0.410743
 C          2.977281   -6.107159   -0.697690
 H          4.046352   -5.866205   -0.738266
 H          2.853026   -6.980924   -0.050734
 H          2.666776   -6.390535   -1.710476
 C         -2.977272    6.107154    0.697533
 H         -2.853013    6.980922    0.050581
 H         -4.046343    5.866206    0.738110
 H         -2.666763    6.390525    1.710320
 C         -7.472728   -4.048822   -0.261848
 H         -8.052137   -4.262704    0.644833
 H         -8.174177   -4.045187   -1.104258
 H         -6.777533   -4.879887   -0.410904
 C        -12.772141   -3.666329    0.310244
 H        -12.184873   -3.947032   -0.572090
 H        -12.117356   -3.761695    1.184417
 H        -13.576731   -4.399171    0.418148
 C         18.482762   -1.111802    0.014293
 O         19.245857   -0.168011   -0.092607
 O         18.881661   -2.392173    0.125399
 C         16.221872   -2.178733    0.166788
 N         15.574982   -3.143315    0.271164
 C         20.304794   -2.608170    0.111560
 H         20.434309   -3.685389    0.210918
 H         20.734595   -2.253744   -0.828505
 H         20.777750   -2.084836    0.946153
 C        -18.482761    1.111811   -0.013940
 O        -19.245851    0.168018    0.092982
 O        -18.881666    2.392181   -0.125031
 C        -16.221879    2.178745   -0.166529
 N        -15.575002    3.143332   -0.270940
 C        -20.304799    2.608176   -0.111139
 H        -20.734564    2.253747    0.828942
 H        -20.434320    3.685395   -0.210490
 H        -20.777785    2.084843   -0.945716
       114
T1: Total Energy = -6626.50462299
 C         16.977595    0.955455    0.044218
 C         16.431807   -0.298724    0.153401
 H         17.166598   -1.095300    0.254015
 C         15.081904   -0.738466    0.157586
 C         14.700910   -2.070353    0.284667
 C         13.314431   -2.308109    0.266883
 C         12.586630   -1.117748    0.120339
 S         13.654311    0.273048    0.006787
 H         15.432807   -2.865036    0.392024
 C         11.166207   -0.890453    0.055694
 C         10.514554    0.330393   -0.069573
 C          9.115270    0.233930   -0.118504
 C          8.632095   -1.066827   -0.032015
 S          9.976810   -2.187722    0.114962
 H         11.040762    1.276929   -0.129327
 H          8.467991    1.097574   -0.223172
 C          7.254018   -1.488900   -0.035742
 C          6.684792   -2.761506   -0.087555
 C          5.268857   -2.714533   -0.086691
 C          4.724031   -1.445525   -0.034413
 S          6.002466   -0.249064    0.030830
 H          4.660445   -3.611800   -0.137699
 C          3.337396   -1.061402   -0.026994
 C          2.801719    0.203151   -0.098516
 C          1.376381    0.237823   -0.068846
 C          0.812098   -1.071388    0.016902
 S          2.075524   -2.299329    0.085179
 H          3.411703    1.093322   -0.194158
 C          0.528003    1.375972   -0.170993
 C         -0.560544   -1.326544   -0.004841
 C         -0.842426    1.124033   -0.192306
 C         -1.410103   -0.187307   -0.104359
 C         -2.828808   -0.152383   -0.072765
 C         -3.372136    1.121954   -0.149490
 S         -2.101108    2.358266   -0.264461
 H         -3.441076   -1.040589    0.024345
 C         -4.741039    1.489107   -0.142196
 C         -5.300566    2.774375   -0.192707
 C         -6.690313    2.830499   -0.168240
 C         -7.286393    1.533523   -0.094220
 S         -6.022341    0.282398   -0.062179
 H         -4.685262    3.666892   -0.245163
 C         -8.628420    1.139899   -0.047806
 C         -9.122116   -0.191835    0.025723
 C        -10.489670   -0.300381    0.058257
 C        -11.184562    0.945639    0.012916
 S        -10.005658    2.269107   -0.073527
 H         -8.460177   -1.050530    0.053580
 H        -11.010645   -1.249267    0.113910
 C        -12.571448    1.124249    0.031861
 C        -13.365471    2.313826   -0.007303
 C        -14.721186    2.039262    0.032289
 C        -15.073037    0.670334    0.101502
 S        -13.615054   -0.316586    0.117989
 H        -15.482706    2.812540    0.011869
 H        -17.158332    0.975428    0.131509
 C        -16.394767    0.201069    0.148528
 C        -16.903788   -1.091666    0.213312
 C          1.052524    2.749551   -0.253541
 C          0.790057    3.704596   -1.205654
 C          1.430251    4.954434   -0.955170
 C          2.181480    4.972300    0.190169
 S          2.105810    3.418137    0.988865
 H          0.171915    3.510004   -2.075557
 H          1.341862    5.815418   -1.610115
 C         -1.082386   -2.699390    0.073716
 C         -0.786656   -3.669879    1.001285
 C         -1.433641   -4.915986    0.753356
 C         -2.223343   -4.917202   -0.366289
 S         -2.177299   -3.351054   -1.142509
 H         -0.141569   -3.487980    1.854086
 H         -1.322582   -5.786772    1.391647
 C         12.734389   -3.691972    0.395737
 H         12.073332   -3.779864    1.265969
 H         12.152494   -3.976673   -0.488896
 H         13.536114   -4.426349    0.513851
 C          7.438119   -4.063862   -0.152426
 H          8.137505   -4.090795   -0.996194
 H          8.019237   -4.246321    0.759878
 H          6.741460   -4.898539   -0.271051
 C          2.985221    6.102206    0.761717
 H          4.049517    5.849350    0.838319
 H          2.893089    6.981518    0.117016
 H          2.641939    6.381909    1.764876
 C         -3.044255   -6.039542   -0.927948
 H         -2.929766   -6.928315   -0.300116
 H         -4.110728   -5.787130   -0.965317
 H         -2.734098   -6.303279   -1.946096
 C         -7.447571    4.129418   -0.214926
 H         -8.106952    4.186925   -1.089020
 H         -8.070620    4.271851    0.675914
 H         -6.750084    4.969900   -0.269707
 C        -12.820754    3.713641   -0.082912
 H        -12.184861    3.950785    0.778388
 H        -12.218952    3.868557   -0.986381
 H        -13.640722    4.436869   -0.100816
 C         18.459610    1.069497    0.075799
 O         19.219683    0.124402    0.191757
 O         18.861873    2.348289   -0.039664
 C         16.201914    2.140721   -0.095272
 N         15.557739    3.106086   -0.208728
 C         20.285440    2.561376   -0.019286
 H         20.417716    3.637882   -0.122524
 H         20.709521    2.209982    0.924492
 H         20.761519    2.033522   -0.849232
 C        -18.373012   -1.248878    0.251159
 O        -19.169834   -0.323876    0.229300
 O        -18.740141   -2.547095    0.313346
 C        -16.094347   -2.256096    0.242583
 N        -15.423866   -3.212449    0.265453
 C        -20.155497   -2.792846    0.353051
 H        -20.638500   -2.399534   -0.545169
 H        -20.260282   -3.876657    0.399997
 H        -20.601442   -2.326046    1.235140
       114
S1: Total Energy = -6626.48695991
 C         16.939653    1.020529   -0.095460
 C         16.409508   -0.253326   -0.030058
 H         17.158370   -1.041927    0.006217
 C         15.072550   -0.709526   -0.002181
 C         14.704869   -2.056844    0.068567
 C         13.327688   -2.310044    0.086357
 C         12.573002   -1.120360    0.027444
 S         13.626956    0.293182   -0.049111
 H         15.449313   -2.846196    0.107284
 C         11.160312   -0.911890    0.022550
 C         10.489246    0.315691   -0.036263
 C          9.099953    0.212126   -0.024589
 C          8.617435   -1.101040    0.043577
 S          9.981218   -2.222003    0.093242
 H         11.009704    1.265578   -0.086642
 H          8.444804    1.075482   -0.065723
 C          7.255001   -1.514061    0.073105
 C          6.678197   -2.801684    0.129151
 C          5.277966   -2.757758    0.138956
 C          4.717564   -1.479969    0.093282
 S          5.997402   -0.273731    0.038716
 H          4.670155   -3.656105    0.176553
 C          3.347955   -1.113445    0.089129
 C          2.803979    0.166388    0.009820
 C          1.395713    0.204667    0.034703
 C          0.819132   -1.107493    0.114950
 S          2.077893   -2.343606    0.190732
 H          3.420552    1.051452   -0.087159
 C          0.546730    1.355962   -0.073784
 C         -0.546727   -1.355951    0.074001
 C         -0.819130    1.107504   -0.114738
 C         -1.395711   -0.204656   -0.034490
 C         -2.803978   -0.166378   -0.009620
 C         -3.347954    1.113454   -0.088944
 S         -2.077891    2.343615   -0.190532
 H         -3.420552   -1.051442    0.087356
 C         -4.717563    1.479977   -0.093130
 C         -5.277966    2.757763   -0.138839
 C         -6.678197    2.801687   -0.129072
 C         -7.255001    1.514064   -0.073018
 S         -5.997401    0.273737   -0.038578
 H         -4.670155    3.656111   -0.176431
 C         -8.617435    1.101043   -0.043506
 C         -9.099953   -0.212122    0.024677
 C        -10.489246   -0.315689    0.036320
 C        -11.160311    0.911890   -0.022541
 S         -9.981218    2.222004   -0.093219
 H         -8.444804   -1.075477    0.065847
 H        -11.009704   -1.265575    0.086708
 C        -12.573002    1.120358   -0.027491
 C        -13.327687    2.310040   -0.086459
 C        -14.704869    2.056837   -0.068741
 C        -15.072551    0.709519    0.001999
 S        -13.626957   -0.293183    0.049060
 H        -15.449311    2.846188   -0.107522
 H        -17.158371    1.041910   -0.006613
 C        -16.409510    0.253313    0.029761
 C        -16.939657   -1.020541    0.095148
 C          1.079798    2.722553   -0.145249
 C          0.778532    3.704604   -1.060386
 C          1.437003    4.942820   -0.809286
 C          2.241239    4.927567    0.300540
 S          2.196110    3.354912    1.062314
 H          0.124137    3.534728   -1.908491
 H          1.324380    5.820282   -1.437910
 C         -1.079790   -2.722544    0.145464
 C         -0.778507   -3.704598    1.060593
 C         -1.436994   -4.942809    0.809511
 C         -2.241252   -4.927552   -0.300298
 S         -2.196076   -3.354920   -1.062115
 H         -0.124103   -3.534720    1.908691
 H         -1.324377   -5.820265    1.438144
 C         12.766476   -3.705112    0.160969
 H         12.149122   -3.851550    1.055443
 H         12.143447   -3.943862   -0.709370
 H         13.578929   -4.436384    0.196512
 C          7.440700   -4.098577    0.172080
 H          8.077843   -4.227438   -0.710879
 H          8.087709   -4.163006    1.054977
 H          6.747204   -4.943410    0.206965
 C          3.075941    6.039039    0.862868
 H          4.140387    5.777186    0.889060
 H          2.963180    6.933150    0.242566
 H          2.776560    6.297270    1.885590
 C         -3.075991   -6.039013   -0.862593
 H         -2.963247   -6.933115   -0.242275
 H         -4.140430   -5.777133   -0.888780
 H         -2.776626   -6.297272   -1.885313
 C         -7.440702    4.098578   -0.172033
 H         -8.087693    4.162995   -1.054944
 H         -8.077865    4.227447    0.710911
 H         -6.747208    4.943412   -0.206913
 C        -12.766473    3.705106   -0.161067
 H        -12.143479    3.943868    0.709293
 H        -12.149082    3.851533   -1.055518
 H        -13.578925    4.436378   -0.196653
 C         18.413624    1.152334   -0.107434
 O         19.194057    0.214935   -0.061180
 O         18.802567    2.443350   -0.176169
 C         16.148118    2.199262   -0.149831
 N         15.491146    3.163310   -0.193431
 C         20.222511    2.666390   -0.191163
 H         20.345335    3.747502   -0.253475
 H         20.680703    2.280519    0.723141
 H         20.678562    2.177867   -1.056117
 C        -18.413628   -1.152353    0.106942
 O        -19.194060   -0.214958    0.060569
 O        -18.802575   -2.443368    0.175686
 C        -16.148125   -2.199272    0.149651
 N        -15.491167   -3.163324    0.193354
 C        -20.222519   -2.666412    0.190518
 H        -20.680602   -2.280583   -0.723858
 H        -20.345346   -3.747522    0.252860
 H        -20.678677   -2.177854    1.055395
