       104
S0: Total Energy = -7761.66767459
 S         16.199285    1.867197   -0.014944
 C         17.754892    2.722284   -0.024694
 S         17.870172    4.373605   -0.084226
 N         18.787471    1.830022    0.022854
 C         18.454704    0.455584    0.068578
 O         19.293260   -0.431301    0.112750
 C         16.992551    0.289646    0.054542
 C         16.436539   -0.953153    0.094490
 H         17.163191   -1.763532    0.135571
 C         15.074942   -1.368496    0.091982
 C         14.642624   -2.686575    0.148339
 C         13.243819   -2.864985    0.139487
 C         12.560105   -1.644785    0.075893
 S         13.687844   -0.296448    0.015819
 H         15.340450   -3.516335    0.201611
 C         11.149063   -1.353012    0.057635
 C         10.546393   -0.104060    0.120750
 C          9.143095   -0.137794    0.058488
 C          8.609922   -1.415223   -0.053894
 S          9.911049   -2.596824   -0.081702
 H         11.109103    0.818449    0.214405
 H          8.530376    0.756162    0.095525
 C          7.215570   -1.779671   -0.123522
 C          6.599024   -3.015206   -0.309496
 C          5.184017   -2.911390   -0.320928
 C          4.688910   -1.635046   -0.148547
 S          6.011694   -0.502338    0.042677
 H          4.542973   -3.775968   -0.460967
 C          3.315392   -1.196408   -0.114668
 C          2.831384    0.079701    0.023345
 C          1.403899    0.164002    0.018229
 C          0.794691   -1.119891   -0.126835
 S          2.006447   -2.388099   -0.260320
 H          3.467495    0.950113    0.137368
 C          0.585642    1.309919    0.138910
 C         -0.585618   -1.309808   -0.140514
 C         -0.794666    1.120001    0.125229
 C         -1.403874   -0.163893   -0.019821
 C         -2.831360   -0.079597   -0.024889
 C         -3.315369    1.196508    0.113159
 S         -2.006422    2.388213    0.258686
 H         -3.467471   -0.950014   -0.138877
 C         -4.688887    1.635133    0.147151
 C         -5.183987    2.911502    0.319376
 C         -6.598997    3.015288    0.308191
 C         -7.215554    1.779704    0.122595
 S         -6.011683    0.502377   -0.043697
 H         -4.542934    3.776118    0.459145
 C         -8.609916    1.415212    0.053407
 C         -9.143100    0.137757   -0.058630
 C        -10.546412    0.103996   -0.120537
 C        -11.149082    1.352953   -0.057485
 S         -9.911060    2.596784    0.081606
 H         -8.530377   -0.756193   -0.095728
 H        -11.109130   -0.818532   -0.213956
 C        -12.560128    1.644712   -0.075533
 C        -13.243860    2.864908   -0.139010
 C        -14.642665    2.686494   -0.147547
 C        -15.074969    1.368416   -0.091041
 S        -13.687849    0.296368   -0.015280
 H        -15.340504    3.516256   -0.200642
 H        -17.163231    1.763452   -0.134045
 C        -16.436567    0.953075   -0.093149
 C        -16.992570   -0.289723   -0.053002
 O        -19.293293    0.431225   -0.110585
 C        -18.454727   -0.455659   -0.066606
 N        -18.787483   -1.830094   -0.020718
 S        -17.870157   -4.373674    0.086206
 C        -17.754892   -2.722356    0.026571
 S        -16.199286   -1.867272    0.016317
 C         20.186459    2.252414    0.027204
 H         20.407159    2.816463   -0.881965
 H         20.791638    1.347746    0.071590
 C        -20.186473   -2.252483   -0.024639
 H        -20.791663   -1.347815   -0.068859
 H        -20.406898   -2.816516    0.884606
 C         12.608492   -4.229297    0.203174
 H         13.377558   -4.997879    0.320769
 H         12.046028   -4.462280   -0.708999
 C          7.300705   -4.335747   -0.488362
 H          6.570804   -5.131401   -0.662261
 H          7.885825   -4.612096    0.397309
 C         -7.300676    4.335842    0.486973
 H         -7.886019    4.612006   -0.398609
 H         -6.570759    5.131552    0.660545
 C        -12.608553    4.229223   -0.202823
 H        -12.045808    4.462159    0.709189
 H        -13.377655    4.997810   -0.320147
 H         20.380408    2.886014    0.895723
 H         11.915555   -4.319188    1.047684
 H          7.987849   -4.322338   -1.342691
 H         -7.987616    4.322571    1.341469
 H        -11.915876    4.319158   -1.047543
 H        -20.380688   -2.886098   -0.893088
 S          1.278299    2.948446    0.343727
 S         -1.278277   -2.948336   -0.345320
 C          1.692746    3.372602   -1.397233
 H          0.794084    3.377625   -2.017343
 H          2.122591    4.377352   -1.372491
 H          2.428065    2.674711   -1.803543
 C         -1.692736   -3.372475    1.395642
 H         -2.122597   -4.377218    1.370906
 H         -0.794077   -3.377507    2.015756
 H         -2.428045   -2.674569    1.801943
       104
T1: Total Energy = -7761.62435269
 S        -16.188384    1.760075   -0.574827
 C        -17.750913    2.573672   -0.795260
 S        -17.879004    4.160229   -1.252671
 N        -18.776639    1.710352   -0.535798
 C        -18.433182    0.391389   -0.156604
 O        -19.264365   -0.465652    0.100196
 C        -16.969345    0.239510   -0.127274
 C        -16.404139   -0.952263    0.211813
 H        -17.124272   -1.735392    0.445391
 C        -15.039092   -1.345096    0.310578
 C        -14.598260   -2.608659    0.680018
 C        -13.198124   -2.773912    0.715078
 C        -12.523288   -1.598872    0.363867
 S        -13.659531   -0.312698   -0.019777
 H        -15.291185   -3.405799    0.930342
 C        -11.113858   -1.309066    0.281466
 C        -10.518061   -0.067494    0.105756
 C         -9.115709   -0.108353    0.025512
 C         -8.577738   -1.383878    0.137383
 S         -9.871934   -2.554156    0.349581
 H        -11.085458    0.854472    0.039076
 H         -8.506751    0.777626   -0.116685
 C         -7.182718   -1.750665    0.121296
 C         -6.564277   -2.997790    0.046528
 C         -5.150513   -2.893812    0.035880
 C         -4.656587   -1.605648    0.103094
 S         -5.981976   -0.462559    0.193249
 H         -4.507894   -3.766212   -0.027199
 C         -3.285664   -1.165618    0.108553
 C         -2.802781    0.119891    0.166070
 C         -1.379096    0.206872    0.153156
 C         -0.765538   -1.082534    0.074050
 S         -1.974130   -2.360365    0.032577
 H         -3.441556    0.995068    0.202218
 C         -0.563119    1.363009    0.199019
 C          0.612593   -1.266995    0.020698
 C          0.814793    1.180229    0.146994
 C          1.429668   -0.110280    0.066161
 C          2.849039   -0.025198    0.052845
 C          3.337507    1.266779    0.113030
 S          2.020481    2.461086    0.191068
 H          3.488009   -0.900200    0.016601
 C          4.696081    1.694751    0.119929
 C          5.196961    2.996800    0.195163
 C          6.589103    3.110351    0.183796
 C          7.234049    1.846088    0.094666
 S          6.024339    0.546625    0.027388
 H          4.546277    3.863037    0.259650
 C          8.596552    1.505594    0.055738
 C          9.144359    0.199433   -0.034157
 C         10.517079    0.148446   -0.054086
 C         11.158406    1.421203    0.019872
 S          9.920217    2.691193    0.114773
 H          8.519479   -0.685718   -0.082215
 H         11.077535   -0.777068   -0.119742
 C         12.532219    1.660133    0.021283
 C         13.281215    2.882175    0.092182
 C         14.644588    2.670436    0.066350
 C         15.060365    1.315522   -0.023555
 S         13.645340    0.267251   -0.077612
 H         15.370778    3.475580    0.111688
 H         17.139832    1.673638   -0.018738
 C         16.389524    0.886390   -0.061789
 C         16.925802   -0.391210   -0.145563
 O         19.240414    0.269893   -0.122603
 C         18.369339   -0.594076   -0.168103
 N         18.665080   -1.981220   -0.252749
 S         17.668360   -4.500711   -0.400681
 C         17.612521   -2.841978   -0.298953
 S         16.089307   -1.932898   -0.234439
 C        -20.178804    2.109455   -0.638103
 H        -20.384134    2.926798    0.057052
 H        -20.778019    1.235140   -0.386758
 C         20.051854   -2.437529   -0.287165
 H         20.679420   -1.549015   -0.226128
 H         20.243651   -2.978475   -1.216965
 C        -12.552610   -4.077722    1.105613
 H        -13.312620   -4.789012    1.441055
 H        -11.832035   -3.949355    1.921303
 C         -7.265881   -4.328327   -0.029541
 H         -6.540104   -5.130003   -0.192796
 H         -7.991473   -4.362252   -0.850413
 C          7.289001    4.439831    0.260680
 H          7.934433    4.511408    1.144167
 H          6.555657    5.248852    0.319498
 C         12.672214    4.254098    0.185342
 H         12.035085    4.475776   -0.679017
 H         13.457856    5.013548    0.224324
 H        -20.396149    2.443562   -1.655174
 H        -12.018700   -4.538232    0.265469
 H         -7.808073   -4.558670    0.895892
 H          7.916385    4.623274   -0.619591
 H         12.054725    4.364752    1.084627
 H         20.245727   -3.102818    0.557538
 S         -1.261841    3.009153    0.278842
 S          1.311091   -2.912745   -0.059488
 C         -1.665991    3.130844    2.068965
 H         -0.762262    3.042078    2.675148
 H         -2.106445    4.120442    2.215733
 H         -2.390780    2.366389    2.357292
 C          1.714458   -3.034627   -1.849996
 H          2.156184   -4.023715   -1.996279
 H          0.810102   -2.947564   -2.455448
 H          2.437938   -2.269295   -2.139212
       104
S1: Total Energy = -7761.60612324
 S        -16.119843    1.877132   -0.070673
 C        -17.660226    2.756051   -0.089802
 S        -17.752021    4.414044   -0.140066
 N        -18.701362    1.876137   -0.057746
 C        -18.385911    0.494472   -0.017780
 O        -19.241386   -0.381870    0.012439
 C        -16.932244    0.311562   -0.018588
 C        -16.384913   -0.943983    0.019418
 H        -17.121272   -1.745680    0.048417
 C        -15.034012   -1.369216    0.028185
 C        -14.608176   -2.698198    0.073576
 C        -13.219201   -2.888847    0.075293
 C        -12.514006   -1.669404    0.028919
 S        -13.636036   -0.305202   -0.014676
 H        -15.315000   -3.521283    0.105435
 C        -11.114306   -1.396679    0.014098
 C        -10.499448   -0.138754   -0.045792
 C         -9.108068   -0.178994   -0.041930
 C         -8.565268   -1.470147    0.020859
 S         -9.877224   -2.652196    0.075464
 H        -11.063058    0.786378   -0.092754
 H         -8.492605    0.712900   -0.085210
 C         -7.187432   -1.819947    0.041703
 C         -6.551812   -3.080821    0.094770
 C         -5.155901   -2.973678    0.097817
 C         -4.653537   -1.671043    0.049595
 S         -5.986198   -0.523765   -0.002197
 H         -4.507923   -3.843444    0.135094
 C         -3.302187   -1.244069    0.042931
 C         -2.813829    0.058275   -0.010223
 C         -1.408084    0.150601    0.001158
 C         -0.779383   -1.142189    0.055351
 S         -1.979063   -2.430220    0.107049
 H         -3.459221    0.927079   -0.072475
 C         -0.593440    1.319881   -0.045859
 C          0.593438   -1.319860    0.046274
 C          0.779381    1.142210   -0.054941
 C          1.408081   -0.150580   -0.000750
 C          2.813827   -0.058255    0.010624
 C          3.302185    1.244089   -0.042538
 S          1.979061    2.430241   -0.106631
 H          3.459218   -0.927060    0.072867
 C          4.653535    1.671061   -0.049222
 C          5.155901    2.973696   -0.097439
 C          6.551813    3.080835   -0.094436
 C          7.187431    1.819959   -0.041407
 S          5.986196    0.523780    0.002529
 H          4.507924    3.843463   -0.134690
 C          8.565267    1.470156   -0.020627
 C          9.108067    0.179002    0.042129
 C         10.499447    0.138756    0.045894
 C         11.114305    1.396678   -0.014041
 S          9.877224    2.652201   -0.075305
 H          8.492604   -0.712891    0.085444
 H         11.063057   -0.786378    0.092809
 C         12.514005    1.669399   -0.028982
 C         13.219200    2.888838   -0.075414
 C         14.608175    2.698183   -0.073843
 C         15.034009    1.369199   -0.028507
 S         13.636034    0.305192    0.014506
 H         15.315000    3.521265   -0.105773
 H         17.121269    1.745652   -0.048979
 C         16.384909    0.943959   -0.019895
 C         16.932238   -0.311589    0.018042
 O         19.241381    0.381832   -0.013163
 C         18.385904   -0.494508    0.017052
 N         18.701353   -1.876171    0.057086
 S         17.752007   -4.414069    0.139644
 C         17.660215   -2.756081    0.089243
 S         16.119834   -1.877155    0.070219
 C        -20.095022    2.313221   -0.063624
 H        -20.290522    2.945452    0.805699
 H        -20.709304    1.414179   -0.028358
 C         20.095011   -2.313260    0.062927
 H         20.709295   -1.414223    0.027577
 H         20.290467   -2.945544   -0.806367
 C        -12.596075   -4.258483    0.121233
 H        -13.374688   -5.026095    0.141906
 H        -11.971887   -4.394783    1.012588
 C         -7.255042   -4.410355    0.142672
 H         -6.524346   -5.223284    0.173194
 H         -7.891322   -4.567511   -0.736332
 C          7.255043    4.410369   -0.142346
 H          7.891359    4.567509    0.736636
 H          6.524349    5.223301   -0.172826
 C         12.596076    4.258477   -0.121283
 H         11.971801    4.394787   -1.012575
 H         13.374690    5.026086   -0.142028
 H        -20.302824    2.883695   -0.971991
 H        -11.963684   -4.450260   -0.753873
 H         -7.892784   -4.503130    1.029790
 H          7.892751    4.503156   -1.029487
 H         11.963773    4.450252    0.753887
 H         20.302854   -2.883680    0.971319
 S         -1.304185    2.957782   -0.139957
 S          1.304185   -2.957759    0.140377
 C         -1.780108    3.237837    1.614995
 H         -0.899614    3.218314    2.260173
 H         -2.236088    4.230544    1.651424
 H         -2.507818    2.493693    1.945703
 C          1.780208   -3.237772   -1.614555
 H          2.236185   -4.230480   -1.650983
 H          0.899751   -3.218228   -2.259784
 H          2.507941   -2.493623   -1.945200
