       122
S0: Total Energy = -8147.56101172
 S        -16.659793   -1.374606    0.128489
 C        -18.321521   -1.993040    0.201113
 S        -18.673604   -3.606956    0.333569
 N        -19.214491   -0.962732    0.132795
 C        -18.686982    0.346490    0.022079
 O        -19.390499    1.342894   -0.046659
 C        -17.217765    0.298211    0.005542
 C        -16.487417    1.444711   -0.093026
 H        -17.090461    2.349840   -0.154346
 C        -15.082210    1.661319   -0.128319
 C        -14.466833    2.905866   -0.232180
 C        -13.067711    2.852344   -0.247730
 C        -12.548242    1.560731   -0.156333
 S        -13.861596    0.397044   -0.048604
 H        -15.036722    3.826737   -0.296062
 C        -11.161502    1.179220   -0.141188
 C        -10.554818   -0.076901   -0.094367
 C         -9.143775    0.010525   -0.104862
 C         -8.626453    1.295085   -0.156081
 S         -9.944840    2.452421   -0.193419
 H         -8.514149   -0.872746   -0.079182
 C         -7.236980    1.680966   -0.165596
 C         -6.635611    2.932721   -0.279212
 C         -5.219304    2.851366   -0.250064
 C         -4.709475    1.576079   -0.117340
 S         -6.017619    0.416881   -0.008591
 H         -4.587215    3.728825   -0.341632
 C         -3.330109    1.156452   -0.061143
 C         -2.824108   -0.116178   -0.118079
 C         -1.396056   -0.184269   -0.035165
 C         -0.808469    1.110797    0.076428
 S         -2.045939    2.366234    0.106116
 H         -3.450002   -0.991625   -0.242269
 C         -0.571512   -1.336176   -0.109271
 C          0.571513    1.336114    0.108565
 C          0.808470   -1.110858   -0.077131
 C          1.396057    0.184207    0.034462
 C          2.824109    0.116117    0.117358
 C          3.330113   -1.156513    0.060422
 S          2.045938   -2.366297   -0.106798
 H          3.449999    0.991574    0.241504
 C          4.709478   -1.576140    0.116595
 C          5.219311   -2.851481    0.248799
 C          6.635614   -2.932834    0.278072
 C          7.236984   -1.681023    0.165083
 S          6.017625   -0.416876    0.008539
 H          4.587227   -3.728996    0.339868
 C          8.626452   -1.295124    0.155858
 C          9.143766   -0.010542    0.105094
 C         10.554810    0.076904    0.094805
 C         11.161502   -1.179224    0.141321
 S          9.944849   -2.452455    0.193029
 H          8.514133    0.872729    0.079587
 C         12.548245   -1.560725    0.156497
 C         13.067718   -2.852355    0.247624
 C         14.466842   -2.905858    0.232199
 C         15.082217   -1.661280    0.128707
 S         13.861598   -0.397000    0.049146
 H         15.036734   -3.826738    0.295924
 H         17.090472   -2.349786    0.154815
 C         16.487425   -1.444650    0.093607
 C         17.217771   -0.298124   -0.004673
 O         19.390513   -1.342784    0.047616
 C         18.686990   -0.346379   -0.021047
 N         19.214493    0.962865   -0.131525
 S         18.673593    3.607116   -0.331902
 C         18.321516    1.993168   -0.199836
 S         16.659789    1.374708   -0.127376
 C         -1.116872   -2.699658   -0.218293
 C         -0.820196   -3.659484   -1.151959
 C         -1.494180   -4.910623   -0.961911
 C         -2.314667   -4.898820    0.142074
 S         -2.256451   -3.347233    0.951844
 H         -0.149530   -3.474510   -1.985314
 C          1.116872    2.699597    0.217585
 C          0.820202    3.659420    1.151256
 C          1.494179    4.910562    0.961203
 C          2.314654    4.898765   -0.142790
 S          2.256444    3.347176   -0.952558
 H          0.149545    3.474442    1.984617
 C        -20.659535   -1.176706    0.169746
 H        -20.964850   -1.800727   -0.673457
 H        -21.128378   -0.195344    0.107483
 C         20.659538    1.176869   -0.168249
 H         21.128390    0.195506   -0.106059
 H         20.964730    1.800777    0.675082
 C         -7.353598    4.248187   -0.427530
 H         -6.632040    5.062768   -0.536621
 H         -7.978127    4.474346    0.445344
 C          7.353599   -4.248360    0.425867
 H          7.978220   -4.474115   -0.447046
 H          6.632038   -5.062997    0.534517
 C         -3.171122   -5.993010    0.711410
 H         -2.716189   -6.442443    1.603460
 H         -3.316481   -6.791278   -0.021708
 C          3.171098    5.992959   -0.712133
 H          3.316438    6.791239    0.020975
 H          2.716167    6.442374   -1.604194
 H        -20.937332   -1.675606    1.101016
 H         -8.006487    4.261859   -1.308372
 H          4.161018    5.622883   -1.001358
 H         -4.161033   -5.622923    1.000648
 H          8.006397   -4.262425    1.306770
 H         20.937450    1.675904   -1.099412
 H        -12.439964    3.732829   -0.326249
 H         12.439973   -3.732865    0.325875
 C        -11.269206   -1.401031   -0.043046
 H        -11.887644   -1.496924    0.857535
 H        -11.928056   -1.544235   -0.907767
 H        -10.546774   -2.221894   -0.036787
 C         11.269191    1.401057    0.043968
 H         11.927969    1.543987    0.908788
 H         11.887700    1.497242   -0.856533
 H         10.546754    2.221917    0.037914
 C          1.285345    6.079241    1.889969
 H          2.025189    6.868923    1.735112
 H          0.292854    6.526279    1.748643
 H          1.349429    5.762649    2.937544
 C         -1.285345   -6.079303   -1.890675
 H         -0.292844   -6.526326   -1.749364
 H         -2.025174   -6.868995   -1.735801
 H         -1.349451   -5.762717   -2.938251
       122
T1: Total Energy = -8147.51673412
 S        -16.625539    1.376150   -0.276035
 C        -18.283401    1.999673   -0.387302
 S        -18.634014    3.619138   -0.401497
 N        -19.174652    0.967846   -0.455479
 C        -18.648894   -0.346289   -0.426105
 O        -19.350934   -1.344585   -0.479976
 C        -17.182774   -0.300586   -0.324744
 C        -16.454783   -1.451970   -0.282234
 H        -17.056882   -2.358567   -0.329165
 C        -15.052653   -1.672001   -0.189209
 C        -14.439837   -2.921634   -0.151686
 C        -13.043800   -2.871011   -0.056946
 C        -12.524293   -1.576730   -0.018010
 S        -13.833793   -0.406712   -0.102644
 H        -15.009473   -3.844016   -0.190970
 C        -11.139614   -1.196817    0.064944
 C        -10.535952    0.057883    0.168170
 C         -9.126881   -0.031243    0.234134
 C         -8.607903   -1.315598    0.183990
 S         -9.922144   -2.470075    0.047173
 H         -8.499410    0.848906    0.328617
 C         -7.219325   -1.700514    0.210105
 C         -6.618761   -2.955244    0.307964
 C         -5.203911   -2.872239    0.313164
 C         -4.691384   -1.592609    0.219575
 S         -5.999343   -0.432111    0.106935
 H         -4.573218   -3.751436    0.397674
 C         -3.314391   -1.172762    0.201533
 C         -2.812467    0.106267    0.226265
 C         -1.387361    0.177580    0.193620
 C         -0.789127   -1.118323    0.155954
 S         -2.020243   -2.380688    0.135030
 H         -3.445347    0.983338    0.287772
 C         -0.569789    1.340172    0.250536
 C          0.590409   -1.336588    0.184264
 C          0.807688    1.124597    0.277170
 C          1.409046   -0.173050    0.237094
 C          2.828431   -0.101298    0.197401
 C          3.336302    1.186537    0.221046
 S          2.034129    2.392596    0.295580
 H          3.463095   -0.976630    0.132352
 C          4.697378    1.593741    0.188260
 C          5.218331    2.892799    0.181085
 C          6.608797    2.986588    0.138147
 C          7.238390    1.708650    0.109370
 S          6.011197    0.422794    0.143894
 H          4.579080    3.769632    0.203921
 C          8.593653    1.351858    0.059219
 C          9.125851    0.038432    0.028226
 C         10.501887   -0.065425   -0.024887
 C         11.147598    1.216066   -0.038479
 S          9.933177    2.513233    0.020301
 H          8.483229   -0.835891    0.044316
 C         12.500799    1.560397   -0.090131
 C         13.045529    2.875473   -0.101348
 C         14.418246    2.927381   -0.160946
 C         15.052117    1.657319   -0.200976
 S         13.833666    0.379941   -0.157575
 H         14.993073    3.846886   -0.177851
 H         17.041304    2.356961   -0.288866
 C         16.435062    1.453030   -0.267268
 C         17.176238    0.283105   -0.312413
 O         19.345646    1.322772   -0.410796
 C         18.632701    0.324283   -0.384140
 N         19.156053   -0.995877   -0.421852
 S         18.597383   -3.650835   -0.413304
 C         18.263448   -2.022426   -0.384852
 S         16.611034   -1.381103   -0.297518
 C         -1.128923    2.702069    0.281305
 C         -0.882679    3.700236    1.188942
 C         -1.554855    4.937383    0.917562
 C         -2.321964    4.875106   -0.222549
 S         -2.216261    3.293091   -0.965935
 H         -0.250449    3.553988    2.059280
 C          1.147485   -2.697671    0.157793
 C          0.873637   -3.710053   -0.727140
 C          1.551480   -4.943451   -0.456781
 C          2.351612   -4.865202    0.659813
 S          2.270488   -3.272555    1.381550
 H          0.218803   -3.575703   -1.582418
 C        -20.616266    1.185285   -0.554769
 H        -20.968780    1.743141    0.315842
 H        -21.084549    0.202464   -0.593758
 C         20.597937   -1.214970   -0.497588
 H         21.067945   -0.232187   -0.513263
 H         20.842911   -1.771154   -1.405616
 C         -7.339874   -4.273351    0.410985
 H         -6.623934   -5.085114    0.567729
 H         -7.904262   -4.502850   -0.501253
 C          7.329108    4.307201    0.121730
 H          7.996290    4.419880    0.984589
 H          6.609054    5.129826    0.149501
 C         -3.157447    5.938543   -0.875147
 H         -2.670630    6.344118   -1.771297
 H         -3.328410    6.771629   -0.187853
 C          3.201114   -5.922382    1.304233
 H          3.380391   -6.749272    0.611389
 H          2.720745   -6.339349    2.198731
 H        -20.844769    1.754322   -1.458888
 H         -8.049569   -4.287984    1.246329
 H          4.175960   -5.527305    1.610688
 H         -4.136521    5.553242   -1.181164
 H          7.938459    4.429215   -0.781660
 H         20.934055   -1.786591    0.370763
 H        -12.418464   -3.755653   -0.013949
 H         12.416624    3.758292   -0.065984
 C        -11.252653    1.380821    0.218594
 H        -11.821580    1.572455   -0.699187
 H        -11.958206    1.432213    1.056304
 H        -10.534710    2.196859    0.338631
 C         11.214864   -1.389500   -0.064433
 H         11.817981   -1.501489   -0.972939
 H         11.886358   -1.517600    0.792529
 H         10.489932   -2.207941   -0.043960
 C          1.366985   -6.164481   -1.321142
 H          2.134033   -6.921449   -1.137197
 H          0.391540   -6.634969   -1.141932
 H          1.406893   -5.900323   -2.384110
 C         -1.397705    6.143562    1.807818
 H         -0.403735    6.594979    1.693336
 H         -2.136658    6.918903    1.589391
 H         -1.506220    5.867390    2.863094
       122
S1: Total Energy = -8147.49966237
 S        -16.606619    1.376733   -0.160989
 C        -18.259891    2.014046   -0.213262
 S        -18.598714    3.638012   -0.318217
 N        -19.157938    0.990073   -0.155636
 C        -18.639643   -0.327956   -0.069985
 O        -19.356621   -1.320087   -0.013058
 C        -17.176637   -0.291494   -0.062726
 C        -16.446042   -1.449190    0.009813
 H        -17.054028   -2.351610    0.057229
 C        -15.048111   -1.669340    0.031709
 C        -14.429049   -2.922745    0.101712
 C        -13.036553   -2.873447    0.108226
 C        -12.505908   -1.576734    0.044760
 S        -13.823414   -0.403637   -0.025198
 H        -15.002028   -3.842734    0.146743
 C        -11.127384   -1.210530    0.032410
 C        -10.505429    0.052156   -0.004310
 C         -9.107182   -0.043164   -0.000789
 C         -8.585337   -1.339339    0.035746
 S         -9.916309   -2.494138    0.067997
 H         -8.472161    0.836459   -0.025166
 C         -7.212287   -1.712500    0.043972
 C         -6.599867   -2.984244    0.071647
 C         -5.201299   -2.902125    0.067148
 C         -4.676638   -1.608742    0.038850
 S         -5.988971   -0.437498    0.010996
 H         -4.568808   -3.783787    0.088803
 C         -3.316960   -1.204923    0.031818
 C         -2.807620    0.090129    0.056957
 C         -1.399821    0.164979    0.037863
 C         -0.788525   -1.133465    0.017100
 S         -2.013922   -2.404555   -0.010553
 H         -3.447269    0.962276    0.112978
 C         -0.582783    1.341672    0.102297
 C          0.583703   -1.343968    0.074111
 C          0.789378    1.131169    0.160246
 C          1.400782   -0.167163    0.136000
 C          2.808472   -0.092041    0.112989
 C          3.317723    1.203014    0.141387
 S          2.014623    2.402332    0.190099
 H          3.448116   -0.964067    0.055060
 C          4.677287    1.607064    0.131869
 C          5.201718    2.900870    0.138831
 C          6.600132    2.983507    0.122149
 C          7.212685    1.711721    0.099554
 S          5.989806    0.435918    0.107291
 H          4.569090    3.782565    0.153603
 C          8.585557    1.339031    0.070634
 C          9.107162    0.043080    0.023858
 C         10.505258   -0.051815    0.001575
 C         11.127317    1.210954    0.033697
 S          9.916512    2.494113    0.088836
 H          8.471999   -0.836556    0.003589
 C         12.505809    1.577506    0.028362
 C         13.036907    2.874324    0.085440
 C         14.429221    2.923907    0.061972
 C         15.047594    1.670630   -0.015709
 S         13.822593    0.404704   -0.057934
 H         15.002520    3.844020    0.100024
 H         17.053454    2.353407   -0.014004
 C         16.445238    1.450825   -0.054579
 C         17.175277    0.293448   -0.136514
 O         19.355277    1.322947   -0.111839
 C         18.638139    0.330546   -0.161110
 N         19.155943   -0.987141   -0.254018
 S         18.595986   -3.635116   -0.412840
 C         18.257714   -2.011462   -0.302025
 S         16.604863   -1.374942   -0.229338
 C         -1.151085    2.695797    0.113055
 C         -0.878037    3.722469    0.983932
 C         -1.564471    4.946541    0.701749
 C         -2.370749    4.848011   -0.409828
 S         -2.286005    3.247767   -1.110608
 H         -0.220637    3.602493    1.839257
 C          1.152080   -2.698009    0.064777
 C          0.877088   -3.726642   -0.803227
 C          1.564438   -4.949951   -0.520117
 C          2.373446   -4.848877    0.589268
 S          2.290232   -3.247148    1.286765
 H          0.217657   -3.608630   -1.657249
 C        -20.600931    1.213876   -0.178849
 H        -20.897553    1.824330    0.677521
 H        -21.074971    0.234066   -0.131456
 C         20.598671   -1.210268   -0.294405
 H         21.072818   -0.230317   -0.251075
 H         20.869705   -1.726861   -1.218135
 C         -7.327062   -4.301455    0.104179
 H         -6.611317   -5.128055    0.122427
 H         -7.968260   -4.435589   -0.775138
 C          7.327098    4.301234    0.124098
 H          7.972885    4.409966    1.003605
 H          6.611285    5.127919    0.133892
 C         -3.224884    5.895848   -1.062731
 H         -2.714814    6.359189   -1.917170
 H         -3.467933    6.692433   -0.353548
 C          3.229313   -5.895199    1.242327
 H          3.471436   -6.692864    0.534039
 H          2.721048   -6.357354    2.098485
 H        -20.882477    1.731988   -1.098577
 H         -7.964753   -4.394013    0.991337
 H          4.172642   -5.476205    1.608400
 H         -4.167744    5.477938   -1.431256
 H          7.960147    4.419454   -0.763302
 H         20.905470   -1.821897    0.557530
 H        -12.411181   -3.757931    0.159925
 H         12.412067    3.758699    0.144736
 C        -11.217364    1.377883   -0.041649
 H        -11.846841    1.478673   -0.933714
 H        -11.864726    1.518734    0.831885
 H        -10.492450    2.196595   -0.053333
 C         11.216918   -1.377189   -0.050362
 H         11.836336   -1.473412   -0.949921
 H         11.874069   -1.522288    0.815150
 H         10.491990   -2.195925   -0.058013
 C          1.382663   -6.188976   -1.358984
 H          2.200224   -6.902400   -1.223329
 H          0.449272   -6.708478   -1.106015
 H          1.333300   -5.935600   -2.423789
 C         -1.384512    6.183719    1.543729
 H         -0.450262    6.703424    1.294368
 H         -2.201454    6.897720    1.407389
 H         -1.338115    5.928073    2.608128
