       134
S0: Total Energy = -9325.01981591
 S         14.481369    1.607322    0.123572
 C         16.256178    1.649199    0.096017
 S         17.120657    3.052860    0.240711
 N         16.761479    0.388500   -0.057011
 C         15.833779   -0.670920   -0.160425
 O         16.163957   -1.837268   -0.299121
 C         14.454890   -0.148536   -0.075541
 C         13.396739   -0.997540   -0.151954
 H         13.673440   -2.043569   -0.274971
 C         11.989395   -0.749055   -0.097627
 C         11.031124   -1.735272   -0.185962
 C          9.689906   -1.258750   -0.107341
 C          8.487171   -2.009767   -0.207605
 C          7.300202   -1.274692   -0.173839
 S          5.677322   -1.959794   -0.228446
 C          4.954368   -0.353044   -0.050759
 C          5.907392    0.628189    0.038097
 C          7.253305    0.146303   -0.033329
 C          8.451883    0.896370    0.068134
 C          9.642084    0.161726    0.033101
 S         11.260656    0.853522    0.087513
 H         11.291097   -2.778700   -0.317098
 H          5.662765    1.675687    0.164674
 C          3.517774   -0.204113   -0.014097
 C          2.565291   -1.185328   -0.103015
 C          1.218613   -0.703208   -0.033374
 C          0.018072   -1.451155   -0.135596
 C         -1.171283   -0.715839   -0.104377
 S         -2.793050   -1.402511   -0.161674
 C         -3.517774    0.204113    0.014097
 C         -2.565291    1.185328    0.103015
 C         -1.218613    0.703208    0.033374
 C         -0.018072    1.451155    0.135596
 C          1.171283    0.715839    0.104377
 S          2.793050    1.402511    0.161674
 H          2.810035   -2.233103   -0.228514
 H         -2.810035    2.233103    0.228514
 C         -4.954368    0.353044    0.050759
 C         -5.907392   -0.628189   -0.038097
 C         -7.253305   -0.146303    0.033329
 C         -8.451883   -0.896370   -0.068134
 C         -9.642084   -0.161726   -0.033101
 S        -11.260656   -0.853522   -0.087513
 C        -11.989395    0.749055    0.097627
 C        -11.031124    1.735272    0.185962
 C         -9.689906    1.258750    0.107341
 C         -8.487171    2.009767    0.207605
 C         -7.300202    1.274692    0.173839
 S         -5.677322    1.959794    0.228446
 H         -5.662765   -1.675687   -0.164674
 H        -11.291097    2.778700    0.317098
 S        -14.481369   -1.607322   -0.123572
 C        -16.256178   -1.649199   -0.096017
 S        -17.120657   -3.052860   -0.240711
 N        -16.761479   -0.388500    0.057011
 C        -15.833779    0.670920    0.160425
 O        -16.163957    1.837268    0.299121
 C        -14.454890    0.148536    0.075541
 C        -13.396739    0.997540    0.151954
 H        -13.673440    2.043569    0.274971
 C          8.474297   -3.475005   -0.342723
 C          7.830429   -4.235123   -1.289586
 C          7.990184   -5.639358   -1.101459
 C          8.748193   -5.969621   -0.008971
 S          9.283933   -4.524056    0.816243
 H          7.276577   -3.799301   -2.114020
 H          7.559550   -6.385145   -1.761858
 C          9.120179   -7.333631    0.491324
 H          8.754330   -7.509264    1.509974
 H          8.682305   -8.096058   -0.160076
 C          8.467032    2.362412    0.202928
 C          9.096891    3.121042    1.160036
 C          8.949210    4.525975    0.965341
 C          8.213853    4.857398   -0.141972
 S          7.685549    3.412700   -0.973717
 H          9.633839    2.684387    1.995262
 H          9.372868    5.270937    1.631171
 C          7.859147    6.222082   -0.652957
 H          8.248110    6.393844   -1.663671
 H          8.286611    6.983854    0.006076
 C          0.002563   -2.917578   -0.269265
 C         -0.623097   -3.677374   -1.227980
 C         -0.473750   -5.082299   -1.032861
 C          0.258766   -5.412818    0.076585
 S          0.781894   -3.967007    0.909852
 H         -1.158058   -3.240938   -2.064572
 H         -0.893134   -5.827976   -1.700738
 C          0.615583   -6.777043    0.587525
 H          0.228329   -6.949361    1.598842
 H          0.188571   -7.539649   -0.070938
 C         -0.002563    2.917578    0.269265
 C          0.623097    3.677374    1.227980
 C          0.473750    5.082299    1.032861
 C         -0.258766    5.412818   -0.076585
 S         -0.781894    3.967007   -0.909852
 H          1.158058    3.240938    2.064572
 H          0.893134    5.827976    1.700738
 C         -0.615583    6.777043   -0.587525
 H         -0.228329    6.949361   -1.598842
 H         -0.188571    7.539649    0.070938
 C         -8.467032   -2.362412   -0.202928
 C         -9.096891   -3.121042   -1.160036
 C         -8.949210   -4.525975   -0.965341
 C         -8.213853   -4.857398    0.141972
 S         -7.685549   -3.412700    0.973717
 H         -9.633839   -2.684387   -1.995262
 H         -9.372868   -5.270937   -1.631171
 C         -7.859147   -6.222082    0.652957
 H         -8.248110   -6.393844    1.663671
 H         -8.286611   -6.983854   -0.006076
 C         -8.474297    3.475005    0.342723
 C         -7.830429    4.235123    1.289586
 C         -7.990184    5.639358    1.101459
 C         -8.748193    5.969621    0.008971
 S         -9.283933    4.524056   -0.816243
 H         -7.276577    3.799301    2.114020
 H         -7.559550    6.385145    1.761858
 C         -9.120179    7.333631   -0.491324
 H         -8.754330    7.509264   -1.509974
 H         -8.682305    8.096058    0.160076
 C         18.197854    0.123240   -0.113974
 H         18.640561    0.657948   -0.957385
 H         18.318707   -0.952266   -0.237799
 C        -18.197854   -0.123240    0.113974
 H        -18.640561   -0.657948    0.957385
 H        -18.318707    0.952266    0.237799
 H         10.206510   -7.482436    0.502981
 H          6.773985    6.375733   -0.688714
 H          1.700974   -6.929570    0.622086
 H         -1.700974    6.929570   -0.622086
 H         -6.773985   -6.375733    0.688714
 H        -10.206510    7.482436   -0.502981
 H         18.673817    0.458115    0.810450
 H        -18.673817   -0.458115   -0.810450
       134
T1: Total Energy = -9324.96754140
 S         14.468652    1.603086    0.111561
 C         16.242716    1.658832    0.090008
 S         17.098708    3.073669    0.225798
 N         16.749953    0.401019   -0.050212
 C         15.822904   -0.665602   -0.147507
 O         16.163055   -1.834334   -0.275519
 C         14.451251   -0.149624   -0.071239
 C         13.381362   -1.005541   -0.141886
 H         13.660354   -2.051707   -0.255490
 C         11.988659   -0.755090   -0.090987
 C         11.009355   -1.743733   -0.181155
 C          9.684606   -1.266681   -0.100678
 C          8.469431   -2.020280   -0.204941
 C          7.288648   -1.286175   -0.180102
 S          5.662754   -1.970939   -0.236620
 C          4.936579   -0.365514   -0.051150
 C          5.913094    0.619802    0.044079
 C          7.239168    0.139633   -0.038050
 C          8.452613    0.894416    0.066668
 C          9.635130    0.159080    0.039946
 S         11.259662    0.846050    0.091339
 H         11.267759   -2.786285   -0.320149
 H          5.668750    1.664900    0.189239
 C          3.524646   -0.199828   -0.012981
 C          2.547707   -1.185061   -0.109945
 C          1.222078   -0.703694   -0.031011
 C          0.007621   -1.456098   -0.138590
 C         -1.173434   -0.721556   -0.113069
 S         -2.799328   -1.405707   -0.172146
 C         -3.524646    0.199828    0.012981
 C         -2.547707    1.185061    0.109945
 C         -1.222078    0.703694    0.031011
 C         -0.007621    1.456098    0.138590
 C          1.173434    0.721556    0.113069
 S          2.799328    1.405707    0.172146
 H          2.791654   -2.230414   -0.254000
 H         -2.791654    2.230414    0.254000
 C         -4.936579    0.365514    0.051150
 C         -5.913094   -0.619802   -0.044079
 C         -7.239168   -0.139633    0.038050
 C         -8.452613   -0.894416   -0.066668
 C         -9.635130   -0.159080   -0.039946
 S        -11.259662   -0.846050   -0.091339
 C        -11.988659    0.755090    0.090987
 C        -11.009355    1.743733    0.181155
 C         -9.684606    1.266681    0.100678
 C         -8.469431    2.020280    0.204941
 C         -7.288648    1.286175    0.180102
 S         -5.662754    1.970939    0.236620
 H         -5.668750   -1.664900   -0.189239
 H        -11.267759    2.786285    0.320149
 S        -14.468652   -1.603086   -0.111561
 C        -16.242716   -1.658832   -0.090008
 S        -17.098708   -3.073669   -0.225798
 N        -16.749953   -0.401019    0.050212
 C        -15.822904    0.665602    0.147507
 O        -16.163055    1.834334    0.275519
 C        -14.451251    0.149624    0.071239
 C        -13.381362    1.005541    0.141886
 H        -13.660354    2.051707    0.255490
 C          8.459048   -3.483391   -0.336535
 C          7.794418   -4.247927   -1.266727
 C          7.957444   -5.650973   -1.077445
 C          8.739537   -5.977829   -0.000722
 S          9.295173   -4.530562    0.807531
 H          7.225569   -3.815162   -2.082484
 H          7.513234   -6.398791   -1.726412
 C          9.123388   -7.340352    0.494282
 H          8.781269   -7.513460    1.521579
 H          8.671181   -8.104674   -0.144992
 C          8.464262    2.356680    0.197610
 C          9.145777    3.121540    1.116160
 C          8.982786    4.523942    0.927410
 C          8.184493    4.850688   -0.137812
 S          7.611901    3.404065   -0.934354
 H          9.727135    2.689604    1.923381
 H          9.440965    5.271702    1.566505
 C          7.799513    6.213294   -0.631299
 H          8.131549    6.382701   -1.662469
 H          8.261408    6.977349    0.001207
 C         -0.004141   -2.919100   -0.274036
 C         -0.665567   -3.679882   -1.209589
 C         -0.506590   -5.083648   -1.022632
 C          0.268952   -5.414513    0.057700
 S          0.823554   -3.970399    0.872065
 H         -1.229742   -3.243897   -2.026877
 H         -0.949403   -5.829055   -1.675308
 C          0.646365   -6.778956    0.552365
 H          0.298417   -6.952655    1.577579
 H          0.195157   -7.540950   -0.090381
 C          0.004141    2.919100    0.274036
 C          0.665567    3.679882    1.209589
 C          0.506590    5.083648    1.022632
 C         -0.268952    5.414513   -0.057700
 S         -0.823554    3.970399   -0.872065
 H          1.229742    3.243897    2.026877
 H          0.949403    5.829055    1.675308
 C         -0.646365    6.778956   -0.552365
 H         -0.298417    6.952655   -1.577579
 H         -0.195157    7.540950    0.090381
 C         -8.464262   -2.356680   -0.197610
 C         -9.145777   -3.121540   -1.116160
 C         -8.982786   -4.523942   -0.927410
 C         -8.184493   -4.850688    0.137812
 S         -7.611901   -3.404065    0.934354
 H         -9.727135   -2.689604   -1.923381
 H         -9.440965   -5.271702   -1.566505
 C         -7.799513   -6.213294    0.631299
 H         -8.131549   -6.382701    1.662469
 H         -8.261408   -6.977349   -0.001207
 C         -8.459048    3.483391    0.336535
 C         -7.794418    4.247927    1.266727
 C         -7.957444    5.650973    1.077445
 C         -8.739537    5.977829    0.000722
 S         -9.295173    4.530562   -0.807531
 H         -7.225569    3.815162    2.082484
 H         -7.513234    6.398791    1.726412
 C         -9.123388    7.340352   -0.494282
 H         -8.781269    7.513460   -1.521579
 H         -8.671181    8.104674    0.144992
 C         18.186111    0.137633   -0.100565
 H         18.631523    0.666104   -0.946659
 H         18.308073   -0.938849   -0.215413
 C        -18.186111   -0.137633    0.100565
 H        -18.631523   -0.666104    0.946659
 H        -18.308073    0.938849    0.215413
 H         10.209822   -7.488257    0.481416
 H          6.713691    6.364401   -0.607332
 H          1.732456   -6.929796    0.545023
 H         -1.732456    6.929796   -0.545023
 H         -6.713691   -6.364401    0.607332
 H        -10.209822    7.488257   -0.481416
 H         18.659571    0.480391    0.822439
 H        -18.659571   -0.480391   -0.822439
       134
S1: Total Energy = -9324.95197952
 S         14.473571    1.596225    0.109407
 C         16.246050    1.649319    0.091177
 S         17.107619    3.064595    0.219535
 N         16.750557    0.389400   -0.039902
 C         15.822541   -0.677400   -0.132484
 O         16.164279   -1.848054   -0.252145
 C         14.452065   -0.159940   -0.062910
 C         13.382480   -1.013021   -0.131309
 H         13.660248   -2.060258   -0.238175
 C         11.985341   -0.762836   -0.085992
 C         11.007767   -1.744873   -0.172952
 C          9.679614   -1.261451   -0.100176
 C          8.466639   -2.010378   -0.204497
 C          7.286160   -1.274148   -0.180860
 S          5.661362   -1.959513   -0.239131
 C          4.937144   -0.352438   -0.053096
 C          5.910442    0.631600    0.041110
 C          7.239148    0.151780   -0.042271
 C          8.452014    0.903628    0.060029
 C          9.634688    0.164501    0.036236
 S         11.261513    0.844435    0.086881
 H         11.260814   -2.789929   -0.302703
 H          5.666252    1.676856    0.186629
 C          3.524004   -0.186034   -0.013164
 C          2.548836   -1.174759   -0.115084
 C          1.224925   -0.698925   -0.027423
 C          0.010012   -1.458026   -0.144073
 C         -1.171762   -0.725552   -0.123336
 S         -2.797149   -1.412126   -0.178321
 C         -3.524004    0.186034    0.013164
 C         -2.548836    1.174759    0.115084
 C         -1.224925    0.698925    0.027423
 C         -0.010012    1.458026    0.144073
 C          1.171762    0.725552    0.123336
 S          2.797149    1.412126    0.178321
 H          2.798242   -2.216360   -0.273431
 H         -2.798242    2.216360    0.273431
 C         -4.937144    0.352438    0.053096
 C         -5.910442   -0.631600   -0.041110
 C         -7.239148   -0.151780    0.042271
 C         -8.452014   -0.903628   -0.060029
 C         -9.634688   -0.164501   -0.036236
 S        -11.261513   -0.844435   -0.086881
 C        -11.985341    0.762836    0.085992
 C        -11.007767    1.744873    0.172952
 C         -9.679614    1.261451    0.100176
 C         -8.466639    2.010378    0.204497
 C         -7.286160    1.274148    0.180860
 S         -5.661362    1.959513    0.239131
 H         -5.666252   -1.676856   -0.186629
 H        -11.260814    2.789929    0.302703
 S        -14.473571   -1.596225   -0.109407
 C        -16.246050   -1.649319   -0.091177
 S        -17.107619   -3.064595   -0.219535
 N        -16.750557   -0.389400    0.039902
 C        -15.822541    0.677400    0.132484
 O        -16.164279    1.848054    0.252145
 C        -14.452065    0.159940    0.062910
 C        -13.382480    1.013021    0.131309
 H        -13.660248    2.060258    0.238175
 C          8.451229   -3.474970   -0.334069
 C          7.808305   -4.237830   -1.279880
 C          7.959601   -5.641882   -1.083525
 C          8.711626   -5.969980    0.013702
 S          9.251819   -4.523057    0.833769
 H          7.262505   -3.803645   -2.110630
 H          7.529709   -6.389011   -1.742964
 C          9.078197   -7.333105    0.520338
 H          8.712234   -7.502713    1.539991
 H          8.637466   -8.097067   -0.127385
 C          8.466971    2.365760    0.183507
 C          9.165370    3.136091    1.085407
 C          8.999456    4.536985    0.892272
 C          8.182283    4.858867   -0.160553
 S          7.595483    3.408559   -0.939352
 H          9.761128    2.708655    1.884348
 H          9.469754    5.287898    1.518735
 C          7.790641    6.219184   -0.654623
 H          8.108233    6.383750   -1.691143
 H          8.261491    6.986016   -0.032205
 C          0.004286   -2.916371   -0.286121
 C         -0.699779   -3.676458   -1.194498
 C         -0.523371   -5.077849   -1.025483
 C          0.306310   -5.410547    0.015280
 S          0.894613   -3.970554    0.809722
 H         -1.300801   -3.239611   -1.984339
 H         -0.992051   -5.822160   -1.660779
 C          0.711085   -6.775763    0.483888
 H          0.407607   -6.956819    1.521811
 H          0.237215   -7.535816   -0.144325
 C         -0.004286    2.916371    0.286121
 C          0.699779    3.676458    1.194498
 C          0.523371    5.077849    1.025483
 C         -0.306310    5.410547   -0.015280
 S         -0.894613    3.970554   -0.809722
 H          1.300801    3.239611    1.984339
 H          0.992051    5.822160    1.660779
 C         -0.711085    6.775763   -0.483888
 H         -0.407607    6.956819   -1.521811
 H         -0.237215    7.535816    0.144325
 C         -8.466971   -2.365760   -0.183507
 C         -9.165370   -3.136091   -1.085407
 C         -8.999456   -4.536985   -0.892272
 C         -8.182283   -4.858867    0.160553
 S         -7.595483   -3.408559    0.939352
 H         -9.761128   -2.708655   -1.884348
 H         -9.469754   -5.287898   -1.518735
 C         -7.790641   -6.219184    0.654623
 H         -8.108233   -6.383750    1.691143
 H         -8.261491   -6.986016    0.032205
 C         -8.451229    3.474970    0.334069
 C         -7.808305    4.237830    1.279880
 C         -7.959601    5.641882    1.083525
 C         -8.711626    5.969980   -0.013702
 S         -9.251819    4.523057   -0.833769
 H         -7.262505    3.803645    2.110630
 H         -7.529709    6.389011    1.742964
 C         -9.078197    7.333105   -0.520338
 H         -8.712234    7.502713   -1.539991
 H         -8.637466    8.097067    0.127385
 C         18.185876    0.122833   -0.085391
 H         18.634733    0.644834   -0.933766
 H         18.305371   -0.954731   -0.192925
 C        -18.185876   -0.122833    0.085391
 H        -18.634733   -0.644834    0.933766
 H        -18.305371    0.954731    0.192925
 H         10.164001   -7.485765    0.532495
 H          6.705241    6.370702   -0.616283
 H          1.796696   -6.919306    0.429902
 H         -1.796696    6.919306   -0.429902
 H         -6.705241   -6.370702    0.616283
 H        -10.164001    7.485765   -0.532495
 H         18.658554    0.470670    0.836192
 H        -18.658554   -0.470670   -0.836192
