        98
S0: Total Energy = -5705.07255560
 C          7.321800   -0.440029    0.009319
 C          6.562791    0.703206    0.013495
 C          5.152099    0.468886    0.016451
 C          4.840571   -0.925752    0.014405
 S          6.307077   -1.899253    0.009279
 H          6.992277    1.699705    0.013515
 C          4.110374    1.412775    0.020202
 C          0.324612    0.456689    0.024657
 C          1.083661   -0.686677    0.022009
 C          2.494285   -0.452398    0.020180
 C          2.805845    0.942237    0.021855
 S          1.339486    1.915867    0.025840
 H          0.654114   -1.683152    0.020488
 C          3.536070   -1.396311    0.016321
 C          8.758028   -0.567822    0.004872
 C          9.523013   -1.723962   -0.009029
 S          9.790880    0.845928    0.017280
 C         10.909200   -1.491787   -0.010670
 H          9.088592   -2.717790   -0.018623
 C         11.250965   -0.142847    0.002420
 H         11.662945   -2.272606   -0.021798
 C         12.595878    0.359517    0.002462
 C         13.774754   -0.391775   -0.014323
 N         12.975948    1.700468    0.018760
 C         14.265395   -1.749578   -0.036598
 C         14.890983    0.486942   -0.008863
 C         14.401130    1.845136    0.012664
 C         12.132539    2.883697    0.042526
 N         15.691276   -1.603986   -0.043742
 O         13.711225   -2.849399   -0.048191
 C         16.069564   -0.264336   -0.027155
 O         14.955760    2.944792    0.024960
 H         12.809404    3.739557    0.053102
 H         11.508534    2.912987    0.940957
 H         11.499358    2.942703   -0.848005
 C         16.535671   -2.786677   -0.066241
 C         17.418965    0.237146   -0.028776
 H         15.860104   -3.643485   -0.073723
 H         17.158582   -2.816455   -0.965342
 H         17.170885   -2.841767    0.822990
 C         17.761169    1.583580   -0.011628
 S         18.880726   -0.750795   -0.052595
 H         17.008183    2.365033    0.004499
 C         19.158019    1.811393   -0.017470
 C         19.889266    0.650765   -0.038969
 H         19.606307    2.798496   -0.006169
 H         20.964987    0.533986   -0.047674
 C         -1.111337    0.584650    0.025813
 S         -2.144802   -0.828712    0.034722
 C         -1.875953    1.741462    0.019995
 C         -3.604639    0.161015    0.029598
 C         -3.261862    1.510246    0.021863
 H         -1.440915    2.735038    0.013754
 C         -4.948996   -0.340047    0.031678
 H         -4.015250    2.291497    0.017068
 C         -6.128501    0.412808    0.022621
 N         -5.330634   -1.680403    0.042462
 C         -7.244058   -0.463935    0.027177
 C         -6.617551    1.772120    0.008402
 C         -6.755346   -1.823096    0.040307
 C         -4.488363   -2.864746    0.056870
 C         -8.423765    0.289157    0.015760
 N         -8.042134    1.629432    0.004617
 O         -6.060457    2.870548    0.000597
 O         -7.312389   -2.921672    0.048815
 H         -5.165842   -3.720105    0.065113
 H         -3.858397   -2.919221   -0.836186
 H         -3.861388   -2.899304    0.953003
 C         -9.768092   -0.211360    0.015008
 C         -8.884460    2.813817   -0.008684
 S        -11.228106    0.778599   -0.002481
 C        -10.111404   -1.560237    0.027359
 H         -8.207124    3.669298   -0.012893
 H         -9.516733    2.865447    0.882864
 H         -9.509148    2.850789   -0.906304
 C        -12.261681   -0.634269    0.006964
 C        -11.497685   -1.791071    0.022848
 H         -9.358328   -2.341760    0.038926
 C        -13.698461   -0.505449   -0.002419
 H        -11.933294   -2.784349    0.030836
 C        -14.455934    0.637324   -0.019216
 S        -14.714453   -1.964420    0.006754
 C        -15.868720    0.403823   -0.026163
 H        -14.025871    1.633657   -0.026808
 C        -16.180739   -0.989731   -0.013403
 C        -16.908820    1.346852   -0.043724
 C        -17.486815   -1.459379   -0.017502
 C        -18.215866    0.876682   -0.048041
 C        -18.527166   -0.517086   -0.035222
 S        -19.687474    1.846819   -0.069519
 C        -19.949173   -0.748731   -0.043300
 C        -20.675569    0.397587   -0.061137
 H        -20.392271   -1.738722   -0.036084
 H        -21.753242    0.496977   -0.070281
 H          4.332240    2.475814    0.021537
 H          3.314202   -2.459350    0.014689
 H        -16.686845    2.409967   -0.053898
 H        -17.707882   -2.522708   -0.007555
        98
T1: Total Energy = -5705.04105388
 C          7.324443   -0.447890   -0.000566
 C          6.560752    0.694309   -0.000654
 C          5.152936    0.456911   -0.000779
 C          4.843708   -0.938945   -0.000798
 S          6.312658   -1.909285   -0.000655
 H          6.988085    1.691777   -0.000599
 C          4.107093    1.399188   -0.000849
 C          0.320299    0.437251   -0.001090
 C          1.090201   -0.708771   -0.001090
 C          2.494811   -0.470260   -0.000992
 C          2.805163    0.927067   -0.000943
 S          1.336799    1.899777   -0.001004
 H          0.662701   -1.706011   -0.001136
 C          3.541207   -1.412231   -0.000911
 C          8.759206   -0.571121   -0.000401
 C          9.528289   -1.725841   -0.000010
 S          9.788993    0.845729   -0.000685
 C         10.912935   -1.490139    0.000092
 H          9.096361   -2.720801    0.000223
 C         11.251915   -0.139657   -0.000244
 H         11.668806   -2.269011    0.000444
 C         12.594862    0.365080   -0.000158
 C         13.775995   -0.384021    0.000528
 N         12.972645    1.707040   -0.000712
 C         14.269545   -1.740834    0.001389
 C         14.890069    0.496966    0.000423
 C         14.397201    1.854425   -0.000392
 C         12.126748    2.888713   -0.001692
 N         15.695101   -1.592318    0.001788
 O         13.717765   -2.842101    0.001753
 C         16.070637   -0.251800    0.001208
 O         14.949856    2.955194   -0.000798
 H         12.801768    3.746097   -0.002098
 H         11.497810    2.932155    0.892726
 H         11.498231    2.930952   -0.896462
 C         16.541958   -2.773417    0.002696
 C         17.418832    0.252648    0.001387
 H         15.868133   -3.631639    0.002923
 H         17.171457   -2.815098   -0.891333
 H         17.170852   -2.814150    0.897194
 C         17.758235    1.599941    0.000768
 S         18.882845   -0.732383    0.002415
 H         17.003528    2.379896    0.000093
 C         19.154633    1.830624    0.001112
 C         19.888483    0.671454    0.001992
 H         19.600771    2.818777    0.000724
 H         20.964472    0.556892    0.002416
 C         -1.101709    0.554152   -0.001129
 S         -2.134063   -0.872993   -0.001359
 C         -1.883356    1.714575   -0.000966
 C         -3.607494    0.116869   -0.001219
 C         -3.253723    1.486157   -0.001001
 H         -1.448630    2.708581   -0.000812
 C         -4.920707   -0.374091   -0.001282
 H         -4.008383    2.265362   -0.000856
 C         -6.140992    0.395452   -0.001001
 N         -5.331757   -1.706523   -0.001605
 C         -7.230611   -0.457105   -0.001117
 C         -6.628642    1.768884   -0.000539
 C         -6.742619   -1.831711   -0.001521
 C         -4.499979   -2.900051   -0.002041
 C         -8.449694    0.310785   -0.000720
 N         -8.040531    1.642578   -0.000392
 O         -6.049762    2.857180   -0.000306
 O         -7.323064   -2.918543   -0.001766
 H         -5.181504   -3.751655   -0.002318
 H         -3.872082   -2.944513   -0.896595
 H         -3.872033   -2.945145    0.892448
 C         -9.765627   -0.181639   -0.000651
 C         -8.872589    2.835895    0.000030
 S        -11.237005    0.809365   -0.000020
 C        -10.119667   -1.547933   -0.001044
 H         -8.191034    3.687478    0.000115
 H         -9.500381    2.880332    0.894664
 H         -9.500685    2.880747   -0.894368
 C        -12.270515   -0.614957   -0.000283
 C        -11.493041   -1.774940   -0.000840
 H         -9.366467   -2.328491   -0.001444
 C        -13.696190   -0.494022    0.000108
 H        -11.928997   -2.768358   -0.001077
 C        -14.461255    0.651305    0.000717
 S        -14.714190   -1.955138   -0.000116
 C        -15.870236    0.414989    0.001068
 H        -14.032340    1.648037    0.000931
 C        -16.181572   -0.980237    0.000679
 C        -16.913202    1.356907    0.001746
 C        -17.486152   -1.450686    0.000947
 C        -18.219284    0.884964    0.002020
 C        -18.528921   -0.509242    0.001636
 S        -19.692505    1.853295    0.002876
 C        -19.949827   -0.742755    0.002057
 C        -20.678476    0.402872    0.002719
 H        -20.391599   -1.733378    0.001876
 H        -21.756330    0.500518    0.003138
 H          4.327203    2.462611   -0.000822
 H          3.321522   -2.475696   -0.000928
 H        -16.692622    2.420338    0.002058
 H        -17.706176   -2.514291    0.000644
        98
S1: Total Energy = -5705.01437801
 C          7.321210   -0.452991    0.016526
 C          6.544985    0.698261    0.021537
 C          5.151869    0.463767    0.025439
 C          4.834617   -0.938089    0.023515
 S          6.303006   -1.913137    0.016916
 H          6.975233    1.694416    0.021692
 C          4.100641    1.411787    0.030100
 C          0.315530    0.460413    0.036878
 C          1.093954   -0.692665    0.033756
 C          2.485332   -0.457809    0.030999
 C          2.803230    0.944658    0.032549
 S          1.335694    1.920719    0.037393
 H          0.663460   -1.688688    0.032824
 C          3.537385   -1.405960    0.026362
 C          8.738049   -0.566057    0.010930
 C          9.521779   -1.725968    0.002091
 S          9.769816    0.858796    0.013898
 C         10.893623   -1.489048   -0.002823
 H          9.090591   -2.721305   -0.001141
 C         11.238176   -0.127082    0.002441
 H         11.652295   -2.265202   -0.010626
 C         12.567731    0.369098   -0.002063
 C         13.759654   -0.386927   -0.016052
 N         12.958174    1.709635    0.005597
 C         14.250302   -1.745941   -0.031252
 C         14.868164    0.486339   -0.017367
 C         14.378172    1.848921   -0.003216
 C         12.117613    2.895257    0.023042
 N         15.675741   -1.601942   -0.041354
 O         13.695398   -2.846580   -0.035864
 C         16.057481   -0.265420   -0.033196
 O         14.940246    2.944879    0.001581
 H         12.795446    3.750284    0.027615
 H         11.494643    2.930412    0.921890
 H         11.483493    2.949140   -0.867057
 C         16.518468   -2.785949   -0.058066
 C         17.399612    0.237704   -0.039758
 H         15.842280   -3.642222   -0.059692
 H         17.140301   -2.820706   -0.957736
 H         17.154882   -2.835621    0.830630
 C         17.743579    1.587502   -0.031001
 S         18.865055   -0.749867   -0.060131
 H         16.990272    2.368559   -0.018251
 C         19.138387    1.814475   -0.040417
 C         19.872036    0.653661   -0.056338
 H         19.586609    2.801747   -0.035619
 H         20.947916    0.538598   -0.066129
 C         -1.097089    0.572340    0.038525
 S         -2.130622   -0.853717    0.040228
 C         -1.883005    1.735286    0.038061
 C         -3.600417    0.135183    0.039514
 C         -3.251207    1.501510    0.038395
 H         -1.449761    2.729752    0.036972
 C         -4.924092   -0.355884    0.038843
 H         -4.009450    2.278175    0.037285
 C         -6.122666    0.406244    0.033437
 N         -5.323005   -1.693357    0.042178
 C         -7.227280   -0.458409    0.032795
 C         -6.608605    1.770993    0.025969
 C         -6.741157   -1.825353    0.038796
 C         -4.487327   -2.882905    0.050547
 C         -8.424580    0.300606    0.024461
 N         -8.029811    1.636346    0.020681
 O         -6.043872    2.866397    0.024205
 O         -7.310453   -2.917551    0.041308
 H         -5.167802   -3.735689    0.054323
 H         -3.857490   -2.934132   -0.842635
 H         -3.860582   -2.923428    0.946428
 C         -9.752945   -0.195379    0.019936
 C         -8.866040    2.825349    0.013590
 S        -11.219293    0.795318    0.004756
 C        -10.102725   -1.555116    0.025714
 H         -8.185567    3.678182    0.014862
 H         -9.498847    2.873101    0.904903
 H         -9.489916    2.868867   -0.884232
 C        -12.253401   -0.623276    0.006262
 C        -11.479098   -1.783820    0.018218
 H         -9.348376   -2.335318    0.034650
 C        -13.679160   -0.502239   -0.005376
 H        -11.915170   -2.777106    0.020931
 C        -14.445551    0.643703   -0.020289
 S        -14.696514   -1.963155   -0.003659
 C        -15.851611    0.407384   -0.032240
 H        -14.016782    1.640544   -0.023302
 C        -16.163658   -0.989049   -0.025048
 C        -16.895857    1.350146   -0.050439
 C        -17.467626   -1.459041   -0.035055
 C        -18.200678    0.878012   -0.060831
 C        -18.510661   -0.517116   -0.053499
 S        -19.674340    1.846152   -0.084586
 C        -19.930249   -0.750388   -0.067545
 C        -20.659295    0.395831   -0.084484
 H        -20.372323   -1.740847   -0.065223
 H        -21.737148    0.492757   -0.097392
 H          4.325245    2.474153    0.031379
 H          3.312990   -2.468355    0.024793
 H        -16.674922    2.413457   -0.056596
 H        -17.688175   -2.522504   -0.029338
