       101
S0: Total Energy = -5988.40680289
 C         10.495262   -1.351471   -0.371106
 C         11.122571   -2.590098   -0.564071
 C         12.526630   -2.478799   -0.548425
 C         13.020570   -1.195692   -0.347635
 S         11.684227   -0.072115   -0.166633
 H         13.185478   -3.330572   -0.685026
 C          9.100342   -1.000588   -0.320509
 C          8.556125    0.265375   -0.175672
 S          7.801505   -2.180369   -0.426467
 C          7.143840    0.322858   -0.153501
 H          9.166613    1.159033   -0.093715
 C          6.564590   -0.939326   -0.290564
 C          1.256326   -1.193208   -0.075049
 C          0.698212    0.070488    0.039568
 S         -0.006688   -2.410006    0.071273
 C         -0.696525    0.069131    0.240263
 H          1.285237    0.980405   -0.023076
 C         -1.261783   -1.195536    0.284908
 H         -1.278604    0.977220    0.354441
 C         -6.571418   -0.935718    0.430239
 C         -7.149531    0.333294    0.394263
 S         -7.806023   -2.184945    0.391517
 C         -8.561646    0.273120    0.355358
 C         -9.105044   -1.001522    0.353884
 H         -9.173004    1.169919    0.342639
 C        -10.499218   -1.357365    0.309800
 C        -11.129564   -2.605853    0.401608
 S        -11.681480   -0.071422    0.109209
 C        -12.531453   -2.496510    0.318555
 C        -13.020284   -1.205346    0.161849
 H        -13.192776   -3.355359    0.376108
 C         14.398584   -0.851611   -0.296534
 H         15.085778   -1.686655   -0.426186
 C         15.020173    0.347594   -0.113094
 S         14.287382    1.936686    0.131826
 N         16.884976    1.790975    0.103138
 C         18.317170    2.102830    0.147096
 H         18.581536    2.796974   -0.652402
 H         18.838562    1.157064    0.003667
 C         16.482368    0.443354   -0.101726
 O         17.281387   -0.467467   -0.242842
 C         15.879477    2.695777    0.243928
 C         15.972416    4.067276    0.453556
 C         14.769040    4.821785    0.571674
 N         13.780321    5.432102    0.667240
 C         17.181756    4.809237    0.563363
 N         18.135744    5.472142    0.661735
 C        -14.395620   -0.862379    0.057403
 H        -15.083754   -1.705584    0.100827
 C        -15.013904    0.343530   -0.089067
 S        -14.279496    1.946960   -0.198035
 N        -16.873576    1.790586   -0.324930
 C        -18.302964    2.098698   -0.435866
 H        -18.620627    2.741394    0.386860
 H        -18.824552    1.143741   -0.382007
 C        -16.473831    0.434714   -0.176585
 O        -17.273220   -0.485665   -0.134342
 C        -15.868024    2.705818   -0.353725
 C        -15.958393    4.087309   -0.483655
 C        -14.755266    4.851395   -0.488741
 N        -13.766839    5.469603   -0.491941
 C        -17.164715    4.831033   -0.612842
 N        -18.116323    5.495798   -0.721174
 C         10.424050   -3.908379   -0.770967
 H          9.768302   -3.890609   -1.649257
 H          9.808054   -4.185211    0.092827
 C        -10.436361   -3.931739    0.575393
 H         -9.808100   -3.950441    1.473393
 H         -9.793671   -4.172707   -0.279756
 C          6.400013    1.624820   -0.010017
 H          5.859922    1.683525    0.942898
 H          5.665483    1.766496   -0.810834
 C         -6.405175    1.642845    0.414058
 H         -5.867132    1.820489   -0.525269
 H         -5.668822    1.682117    1.224319
 H        -18.515402    2.584087   -1.389862
 H        -11.174748   -4.733026    0.668746
 H         11.159028   -4.704135   -0.921093
 H         18.585077    2.531097    1.114384
 H          7.098265    2.465927   -0.043755
 H         -7.103121    2.473286    0.553718
 C         -2.660519   -1.533024    0.417813
 C         -3.284926   -2.725480    0.774215
 S         -3.851313   -0.274184    0.115876
 C         -4.695634   -2.598952    0.815147
 C         -5.189104   -1.345706    0.498426
 H         -5.339181   -3.424720    1.101695
 C          2.652233   -1.530099   -0.233280
 C          3.269883   -2.714971   -0.626098
 S          3.849817   -0.281096    0.082942
 C          4.679762   -2.590378   -0.681159
 C          5.181223   -1.346308   -0.340419
 H          5.316679   -3.412551   -0.991709
 C         -2.588860   -4.017375    1.115729
 H         -2.165425   -4.501031    0.226471
 H         -1.768297   -3.864900    1.825389
 H         -3.295166   -4.721338    1.565546
 C          2.567942   -3.998241   -0.987235
 H          2.133934   -4.488794   -0.106973
 H          1.754228   -3.832493   -1.702000
 H          3.273045   -4.701790   -1.439479
       101
T1: Total Energy = -5988.36805332
 C         10.483655   -1.389751    0.000041
 C         11.174953   -2.634862   -0.000079
 C         12.554487   -2.477515   -0.000374
 C         13.020004   -1.146275   -0.000520
 S         11.646026   -0.044964   -0.000282
 H         13.244605   -3.315153   -0.000473
 C          9.110167   -1.092791    0.000327
 C          8.523132    0.196201    0.000640
 S          7.830059   -2.309430    0.000294
 C          7.138409    0.232014    0.000854
 H          9.124690    1.098819    0.000744
 C          6.554827   -1.068075    0.000716
 C          1.291960   -1.409616    0.001535
 C          0.706688   -0.127899    0.001979
 S          0.011217   -2.631689    0.001285
 C         -0.681252   -0.129881    0.002082
 H          1.296561    0.781857    0.002213
 C         -1.262503   -1.408197    0.001732
 H         -1.272151    0.779437    0.002385
 C         -6.548562   -1.053926    0.001437
 C         -7.100852    0.234439    0.003155
 S         -7.820580   -2.272645   -0.001340
 C         -8.508890    0.209357    0.002302
 C         -9.087188   -1.054280   -0.000041
 H         -9.098018    1.120708    0.003507
 C        -10.487855   -1.368394   -0.001337
 C        -11.151796   -2.605176   -0.003091
 S        -11.641398   -0.039169   -0.000692
 C        -12.550527   -2.453396   -0.003824
 C        -13.008262   -1.139908   -0.002735
 H        -13.233472   -3.296950   -0.005133
 C         14.369951   -0.761228   -0.000806
 H         15.089103   -1.578551   -0.000946
 C         14.957987    0.488841   -0.000971
 S         14.158288    2.060701   -0.000833
 N         16.746945    2.031166   -0.001406
 C         18.163595    2.403113   -0.001694
 H         18.408230    2.981249   -0.894632
 H         18.721079    1.466922   -0.001739
 C         16.400900    0.644377   -0.001305
 O         17.249849   -0.240370   -0.001444
 C         15.708323    2.902248   -0.001217
 C         15.738678    4.299350   -0.001292
 C         14.504404    5.007765   -0.001025
 N         13.488260    5.581122   -0.000810
 C         16.912787    5.099721   -0.001648
 N         17.839374    5.808896   -0.001943
 C        -14.375055   -0.752367   -0.003118
 H        -15.087727   -1.575960   -0.004329
 C        -14.959187    0.480219   -0.002184
 S        -14.176804    2.063724   -0.000294
 N        -16.777275    1.997463   -0.001336
 C        -18.199011    2.356756   -0.000940
 H        -18.447197    2.931740    0.892728
 H        -18.749636    1.416737   -0.001159
 C        -16.417562    0.622381   -0.002634
 O        -17.244838   -0.274297   -0.003859
 C        -15.743857    2.881252   -0.000208
 C        -15.792235    4.271100    0.000873
 C        -14.564823    4.995402    0.002273
 N        -13.556186    5.580126    0.003423
 C        -16.976890    5.059397    0.000428
 N        -17.909401    5.759155    0.000061
 C         10.513168   -3.986159    0.000141
 H          9.879694   -4.129906   -0.883325
 H          9.879758   -4.129654    0.883690
 C        -10.490080   -3.957828   -0.004073
 H         -9.858227   -4.104522    0.879838
 H         -9.857680   -4.102972   -0.887854
 C          6.364352    1.521433    0.001190
 H          5.721004    1.607905    0.884891
 H          5.720779    1.608215   -0.882315
 C         -6.324755    1.524305    0.005781
 H         -5.681976    1.615597   -0.877892
 H         -5.681337    1.611615    0.889378
 H        -18.447634    2.932363   -0.894090
 H        -11.246701   -4.747304   -0.005005
 H         11.268852   -4.776574    0.000222
 H         18.408559    2.981364    0.891079
 H          7.048236    2.374393    0.001250
 H         -7.008139    2.377879    0.007927
 C         -2.651282   -1.719757    0.001642
 C         -3.322794   -2.956091    0.001313
 S         -3.814089   -0.389812    0.001963
 C         -4.718785   -2.804273    0.001313
 C         -5.184589   -1.490925    0.001632
 H         -5.388124   -3.658367    0.001162
 C          2.670046   -1.712594    0.001280
 C          3.354212   -2.958106    0.001053
 S          3.834091   -0.372758    0.001211
 C          4.734072   -2.809360    0.000864
 C          5.213731   -1.477967    0.000919
 H          5.406649   -3.660401    0.000687
 C         -2.665682   -4.310105    0.001052
 H         -2.033072   -4.456612   -0.882510
 H         -2.032989   -4.456929    0.884498
 H         -3.423170   -5.098765    0.000943
 C          2.690119   -4.308082    0.001021
 H          2.056619   -4.449205    0.884668
 H          2.056505   -4.449105   -0.882560
 H          3.443302   -5.100660    0.000924
       101
S1: Total Energy = -5988.35357393
 C         10.485381   -1.381188   -0.000037
 C         11.157423   -2.618212   -0.000365
 C         12.551790   -2.465430   -0.000615
 C         13.012143   -1.146680   -0.000502
 S         11.641171   -0.046294   -0.000089
 H         13.236359   -3.307606   -0.000864
 C          9.090924   -1.070488    0.000324
 C          8.511301    0.199826    0.000987
 S          7.822943   -2.288651   -0.000122
 C          7.108766    0.227081    0.001160
 H          9.103962    1.108456    0.001380
 C          6.548465   -1.063728    0.000621
 C          1.275878   -1.417877    0.000643
 C          0.693025   -0.135771    0.001023
 S         -0.000000   -2.639980    0.000206
 C         -0.693024   -0.135771    0.000971
 H          1.284146    0.773096    0.001351
 C         -1.275878   -1.417876    0.000544
 H         -1.284146    0.773096    0.001245
 C         -6.548466   -1.063727    0.000284
 C         -7.108768    0.227081    0.000630
 S         -7.822943   -2.288652   -0.000252
 C         -8.511302    0.199825    0.000466
 C         -9.090925   -1.070489    0.000006
 H         -9.103964    1.108455    0.000702
 C        -10.485381   -1.381189   -0.000251
 C        -11.157424   -2.618214   -0.000518
 S        -11.641172   -0.046295   -0.000242
 C        -12.551791   -2.465431   -0.000669
 C        -13.012144   -1.146681   -0.000529
 H        -13.236360   -3.307607   -0.000858
 C         14.372166   -0.754990   -0.000677
 H         15.090159   -1.573568   -0.000896
 C         14.953934    0.487323   -0.000604
 S         14.157389    2.062454   -0.000329
 N         16.749641    2.025078   -0.000605
 C         18.167038    2.396505   -0.000614
 H         18.411459    2.974561   -0.893561
 H         18.724666    1.460481   -0.000657
 C         16.403594    0.642627   -0.000749
 O         17.247105   -0.244852   -0.000939
 C         15.710829    2.899320   -0.000421
 C         15.745276    4.294967   -0.000305
 C         14.512609    5.006856   -0.000058
 N         13.497909    5.582586    0.000156
 C         16.921140    5.093256   -0.000432
 N         17.848901    5.800734   -0.000542
 C        -14.372167   -0.754991   -0.000602
 H        -15.090160   -1.573568   -0.000765
 C        -14.953936    0.487323   -0.000496
 S        -14.157389    2.062453   -0.000251
 N        -16.749641    2.025080   -0.000424
 C        -18.167037    2.396508   -0.000450
 H        -18.411532    2.974341    0.892623
 H        -18.724666    1.460484   -0.000689
 C        -16.403595    0.642627   -0.000578
 O        -17.247107   -0.244850   -0.000722
 C        -15.710828    2.899321   -0.000255
 C        -15.745273    4.294968   -0.000094
 C        -14.512605    5.006855    0.000057
 N        -13.497905    5.582585    0.000173
 C        -16.921136    5.093258   -0.000065
 N        -17.848895    5.800740   -0.000028
 C         10.496896   -3.971106   -0.000419
 H          9.864252   -4.117273   -0.884143
 H          9.864225   -4.117333    0.883272
 C        -10.496897   -3.971107   -0.000601
 H         -9.864236   -4.117356    0.883094
 H         -9.864243   -4.117253   -0.884320
 C          6.333670    1.516510    0.001885
 H          5.690299    1.604356    0.885658
 H          5.690377    1.605395   -0.881843
 C         -6.333671    1.516510    0.001166
 H         -5.690350    1.605253   -0.882556
 H         -5.690329    1.604496    0.884946
 H        -18.411398    2.974723   -0.893310
 H        -11.253672   -4.760486   -0.000648
 H         11.253671   -4.760485   -0.000440
 H         18.411473    2.974497    0.892371
 H          7.016894    2.369993    0.002410
 H         -7.016894    2.369993    0.001539
 C         -2.657716   -1.724869    0.000367
 C         -3.334539   -2.965662   -0.000035
 S         -3.821644   -0.391329    0.000665
 C         -4.723789   -2.814158   -0.000083
 C         -5.192175   -1.493248    0.000268
 H         -5.395644   -3.665772   -0.000366
 C          2.657716   -1.724870    0.000574
 C          3.334539   -2.965663    0.000337
 S          3.821644   -0.391330    0.000822
 C          4.723788   -2.814159    0.000372
 C          5.192175   -1.493249    0.000618
 H          5.395645   -3.665773    0.000233
 C         -2.674816   -4.317263   -0.000371
 H         -2.041758   -4.460624   -0.884144
 H         -2.041752   -4.461064    0.883324
 H         -3.430075   -5.107714   -0.000566
 C          2.674816   -4.317265    0.000101
 H          2.041760   -4.460997    0.883815
 H          2.041751   -4.460694   -0.883653
 H          3.430075   -5.107716   -0.000043
