       121
S0: Total Energy = -7170.67186852
 C         14.402482   -1.356773   -0.263836
 C         14.969654   -2.638071   -0.303077
 C         16.374018   -2.596699   -0.203858
 C         16.925980   -1.327020   -0.083647
 S         15.645852   -0.126062   -0.087090
 H         16.991439   -3.489295   -0.223612
 C         13.029954   -0.931841   -0.346416
 C         12.555332    0.367294   -0.427679
 S         11.669946   -2.045570   -0.332878
 C         11.149219    0.499835   -0.485688
 H         13.213556    1.229793   -0.458940
 C         10.502694   -0.736721   -0.452634
 C         -2.660117   -0.466327    0.309326
 C         -3.292652    0.750018    0.553994
 S         -3.843983   -1.764732    0.190005
 C         -4.700143    0.613256    0.653564
 C         -5.185544   -0.671458    0.492492
 H         -5.346795    1.459125    0.864258
 C        -10.502643   -0.736386    0.452829
 C        -11.149236    0.500142    0.485309
 S        -11.669753   -2.045323    0.332827
 C        -12.555317    0.367509    0.426772
 C        -13.029838   -0.931676    0.345637
 H        -13.213597    1.229982    0.457572
 C        -14.402319   -1.356706    0.262800
 C        -14.969355   -2.638089    0.301313
 S        -15.645829   -0.126034    0.086731
 C        -16.373720   -2.596818    0.202060
 C        -16.925819   -1.327137    0.082519
 H        -16.991040   -3.489495    0.221265
 C         18.315346   -1.049846    0.026946
 H         18.960992   -1.926899    0.013317
 C         18.991451    0.127657    0.148687
 S         18.335760    1.767332    0.213393
 N         20.917741    1.487403    0.368332
 C         22.359746    1.728134    0.482745
 H         22.713769    2.333865   -0.353195
 H         22.834367    0.747866    0.456504
 C         20.453173    0.149418    0.247256
 O         21.207053   -0.809506    0.233164
 C         19.958021    2.450949    0.368349
 C         20.115042    3.828893    0.470451
 C         18.951100    4.651049    0.448234
 N         17.994487    5.317188    0.429183
 C         21.355247    4.515082    0.596808
 N         22.337425    5.134459    0.701418
 C        -18.315208   -1.050059   -0.028001
 H        -18.960764   -1.927184   -0.014764
 C        -18.991430    0.127426   -0.149268
 S        -18.335897    1.767189   -0.213354
 N        -20.917856    1.487075   -0.368327
 C        -22.359895    1.727723   -0.482474
 H        -22.713828    2.333260    0.353642
 H        -22.834440    0.747413   -0.456361
 C        -20.453155    0.149084   -0.247807
 O        -21.206944   -0.809917   -0.234069
 C        -19.958225    2.450710   -0.368028
 C        -20.115374    3.828675   -0.469660
 C        -18.951511    4.650934   -0.447126
 N        -17.994962    5.317157   -0.427819
 C        -21.355636    4.514784   -0.595893
 N        -22.337863    5.134101   -0.700399
 C         14.211820   -3.932235   -0.443142
 H         13.584663   -3.943967   -1.341938
 H         13.556719   -4.117779    0.416445
 C        -14.211391   -3.932253    0.440641
 H        -13.584655   -3.944649    1.339727
 H        -13.555856   -4.116975   -0.418790
 C         10.478241    1.844618   -0.586582
 H          9.890176    2.075835    0.309956
 H          9.799562    1.899724   -1.445347
 C        -10.478351    1.844976    0.586169
 H         -9.890673    2.076403   -0.310572
 H         -9.799328    1.899993    1.444661
 H        -22.590014    2.226295   -1.425440
 H        -14.909141   -4.771613    0.508977
 H         14.909665   -4.771433   -0.512501
 H         22.589674    2.226535    1.425846
 H         11.226823    2.633690   -0.700810
 H        -11.226963    2.633959    0.700819
 C         -6.563221   -1.103307    0.511623
 C         -7.124547   -2.370637    0.650013
 S         -7.818850    0.118599    0.357108
 C         -8.540218   -2.331080    0.648557
 C         -9.101123   -1.073491    0.507429
 H         -9.139138   -3.228170    0.769810
 C          6.563253   -1.103743   -0.510556
 C          7.124587   -2.371279   -0.647059
 S          7.818886    0.118399   -0.357916
 C          8.540250   -2.331705   -0.645724
 C          9.101174   -1.073906   -0.506514
 H          9.139149   -3.228997   -0.765586
 C         -6.361902   -3.660105    0.810845
 H         -5.857182   -3.954739   -0.117692
 H         -5.594310   -3.587273    1.589185
 H         -7.042403   -4.471540    1.085084
 C          6.361972   -3.661015   -0.805856
 H          5.856977   -3.954030    0.123043
 H          5.594603   -3.589533   -1.584544
 H          7.042542   -4.472931   -1.078490
 C         -1.262976   -0.801633    0.163894
 C         -0.698355   -2.065728    0.091563
 S          0.000044    0.414308   -0.000176
 C          0.698261   -2.065800   -0.091397
 H         -1.282029   -2.976597    0.170612
 C          1.262963   -0.801760   -0.164008
 H          1.281869   -2.976718   -0.170343
 C          2.660130   -0.466571   -0.309488
 C          3.292699    0.749524   -0.555280
 S          3.843970   -1.764841   -0.188596
 C          4.700206    0.612666   -0.654469
 C          5.185578   -0.671883   -0.491998
 H          5.346890    1.458319   -0.865935
 C         -2.609531    2.082020    0.724681
 H         -1.830033    2.047660    1.494564
 H         -2.134770    2.420925   -0.204435
 H         -3.335609    2.845251    1.019343
 C          2.609580    2.081339   -0.727455
 H          1.829803    2.046012   -1.497005
 H          2.135175    2.421470    0.201398
 H          3.335592    2.844156   -1.023355
       121
T1: Total Energy = -7170.63393962
 C         14.382764   -1.384435   -0.253244
 C         14.967340   -2.672293   -0.417696
 C         16.355041   -2.630648   -0.427192
 C         16.932137   -1.352309   -0.275638
 S         15.654761   -0.149535   -0.115271
 H         16.972250   -3.515993   -0.542301
 C         13.039004   -0.977448   -0.187868
 C         12.562026    0.345381   -0.023046
 S         11.661073   -2.076428   -0.301692
 C         11.184426    0.493418    0.012702
 H         13.236824    1.189595    0.069500
 C         10.494002   -0.743945   -0.126011
 C         -2.652855   -0.420786    0.114167
 C         -3.312044    0.810689    0.201571
 S         -3.821324   -1.741748    0.064706
 C         -4.715211    0.666262    0.224553
 C         -5.185259   -0.638182    0.159236
 H         -5.378331    1.522302    0.295399
 C        -10.497222   -0.730924    0.105716
 C        -11.147741    0.496374   -0.039998
 S        -11.663365   -2.034068    0.291094
 C        -12.553513    0.360841   -0.007152
 C        -13.025505   -0.931235    0.162574
 H        -13.213406    1.216243   -0.110831
 C        -14.398678   -1.356375    0.231323
 C        -14.956760   -2.629317    0.413159
 S        -15.656329   -0.137562    0.071652
 C        -16.364921   -2.591923    0.420516
 C        -16.928120   -1.333376    0.249326
 H        -16.976431   -3.479350    0.549661
 C         18.308686   -1.083700   -0.254110
 H         18.955131   -1.952402   -0.366407
 C         19.002902    0.103932   -0.112185
 S         18.338734    1.725559    0.093505
 N         20.913826    1.481338    0.050268
 C         22.356571    1.730233    0.078354
 H         22.648667    2.390161   -0.740616
 H         22.832675    0.757363   -0.041178
 C         20.451551    0.137645   -0.116595
 O         21.225439   -0.806694   -0.239768
 C         19.953215    2.429013    0.173212
 C         20.102436    3.809165    0.344395
 C         18.933342    4.612815    0.451745
 N         17.969839    5.265283    0.539037
 C         21.340047    4.502317    0.421696
 N         22.323748    5.126317    0.491793
 C        -18.323413   -1.062060    0.221163
 H        -18.963471   -1.933353    0.352797
 C        -19.009457    0.103860    0.055979
 S        -18.365535    1.730489   -0.189999
 N        -20.951466    1.446771   -0.128942
 C        -22.398725    1.682859   -0.149830
 H        -22.685752    2.363368    0.653539
 H        -22.867373    0.711284    0.002662
 C        -20.475343    0.122046    0.064875
 O        -21.222212   -0.830713    0.212885
 C        -19.997275    2.404147   -0.279650
 C        -20.165325    3.769012   -0.484328
 C        -19.005030    4.586835   -0.612184
 N        -18.050952    5.248809   -0.715430
 C        -21.413649    4.445150   -0.583037
 N        -22.402657    5.055768   -0.673140
 C         14.194466   -3.954828   -0.567301
 H         13.541693   -3.937277   -1.448296
 H         13.560322   -4.153025    0.305126
 C        -14.186854   -3.912342    0.584969
 H        -13.536250   -3.884245    1.466978
 H        -13.553661   -4.128703   -0.283526
 C         10.521989    1.833038    0.182254
 H          9.901650    1.867292    1.085814
 H          9.874262    2.075937   -0.668508
 C        -10.480315    1.834308   -0.219705
 H         -9.817160    1.846522   -1.092533
 H         -9.876944    2.110314    0.653510
 H        -22.704652    2.094882   -1.112883
 H        -14.876708   -4.751795    0.708922
 H         14.881129   -4.798730   -0.678422
 H         22.650948    2.173406    1.031513
 H         11.275403    2.621028    0.264154
 H        -11.231575    2.616116   -0.361723
 C         -6.555927   -1.074626    0.153130
 C         -7.112545   -2.354743    0.188724
 S         -7.821492    0.148441    0.090777
 C         -8.525497   -2.323768    0.171447
 C         -9.094901   -1.061146    0.121335
 H         -9.118701   -3.232237    0.192372
 C          6.568317   -1.067289   -0.104394
 C          7.146017   -2.354795   -0.263455
 S          7.841129    0.164723    0.018736
 C          8.533833   -2.320177   -0.281421
 C          9.122813   -1.041373   -0.141203
 H          9.132815   -3.217263   -0.395065
 C         -6.344627   -3.649079    0.241989
 H         -5.737740   -3.801740   -0.658799
 H         -5.666541   -3.687124    1.102598
 H         -7.032777   -4.495261    0.323223
 C          6.371268   -3.637143   -0.401022
 H          5.741511   -3.827262    0.476138
 H          5.714189   -3.622455   -1.278658
 H          7.055170   -4.483254   -0.510451
 C         -1.257573   -0.743271    0.063453
 C         -0.685499   -2.011219   -0.059657
 S          0.017478    0.469355    0.156944
 C          0.710713   -2.014186   -0.079385
 H         -1.277810   -2.916380   -0.135735
 C          1.292619   -0.746282    0.028162
 H          1.297001   -2.921958   -0.170257
 C          2.681324   -0.434021    0.034538
 C          3.355180    0.800029    0.158630
 S          3.842962   -1.756444   -0.134055
 C          4.743661    0.657104    0.119156
 C          5.220787   -0.656300   -0.035197
 H          5.412594    1.507091    0.202949
 C         -2.649490    2.160990    0.268739
 H         -2.014850    2.261290    1.157527
 H         -2.017398    2.350190   -0.607022
 H         -3.403774    2.951714    0.310179
 C          2.692471    2.141850    0.319649
 H          2.047980    2.383007   -0.533949
 H          2.070569    2.183485    1.221652
 H          3.446840    2.929373    0.398975
       121
S1: Total Energy = -7170.62179260
 C         14.385122   -1.385473   -0.161713
 C         14.948670   -2.671479   -0.239243
 C         16.351813   -2.639730   -0.222539
 C         16.923630   -1.369107   -0.133283
 S         15.649911   -0.157813   -0.067455
 H         16.962096   -3.535787   -0.275375
 C         13.019866   -0.955476   -0.147518
 C         12.549523    0.354666   -0.099056
 S         11.652404   -2.061321   -0.180988
 C         11.150003    0.498234   -0.087617
 H         13.214855    1.211302   -0.073454
 C         10.486766   -0.736406   -0.127600
 C         -2.658332   -0.414701    0.041166
 C         -3.332388    0.826047    0.038411
 S         -3.823624   -1.745515    0.076407
 C         -4.722542    0.677137    0.061938
 C         -5.192785   -0.642010    0.085036
 H         -5.392667    1.530099    0.063628
 C        -10.486749   -0.736402    0.127450
 C        -11.149982    0.498241    0.087514
 S        -11.652391   -2.061308    0.180983
 C        -12.549502    0.354684    0.099101
 C        -13.019848   -0.955454    0.147639
 H        -13.214832    1.211325    0.073562
 C        -14.385106   -1.385444    0.161989
 C        -14.948648   -2.671438    0.239745
 S        -15.649901   -0.157800    0.067623
 C        -16.351792   -2.639692    0.223142
 C        -16.923615   -1.369083    0.133742
 H        -16.962070   -3.535741    0.276170
 C         18.311410   -1.097543   -0.097223
 H         18.954920   -1.974651   -0.143603
 C         19.000280    0.086263   -0.011299
 S         18.342264    1.722929    0.082595
 N         20.920261    1.459353    0.111137
 C         22.363888    1.704195    0.157777
 H         22.677606    2.312754   -0.692230
 H         22.838375    0.724593    0.107784
 C         20.455797    0.114114    0.014979
 O         21.221652   -0.840657   -0.033898
 C         19.961350    2.418998    0.154969
 C         20.117310    3.804247    0.244392
 C         18.951731    4.620266    0.278215
 N         17.991539    5.282537    0.305348
 C         21.357867    4.494792    0.303730
 N         22.343482    5.117295    0.354697
 C        -18.311400   -1.097524    0.097779
 H        -18.954903   -1.974627    0.144343
 C        -19.000282    0.086266    0.011762
 S        -18.342290    1.722924   -0.082455
 N        -20.920291    1.459328   -0.110575
 C        -22.363930    1.704160   -0.156938
 H        -22.677470    2.312798    0.693081
 H        -22.838403    0.724562   -0.106754
 C        -20.455805    0.114103   -0.014349
 O        -21.221647   -0.840661    0.034848
 C        -19.961392    2.418972   -0.154698
 C        -20.117372    3.804207   -0.244304
 C        -18.951801    4.620228   -0.278408
 N        -17.991617    5.282501   -0.305750
 C        -21.357940    4.494735   -0.303622
 N        -22.343560    5.117228   -0.354599
 C         14.175671   -3.960562   -0.333217
 H         13.528215   -3.986008   -1.217831
 H         13.537256   -4.120075    0.544098
 C        -14.175641   -3.960507    0.333859
 H        -13.528002   -3.985756    1.218343
 H        -13.537410   -4.120226   -0.543553
 C         10.487493    1.848843   -0.037754
 H          9.858013    1.961754    0.853147
 H          9.849998    2.023095   -0.912944
 C        -10.487465    1.848844    0.037566
 H         -9.858005    1.961705   -0.853354
 H         -9.849949    2.023135    0.912733
 H        -22.638063    2.202416   -1.088582
 H        -14.862966   -4.808522    0.401683
 H         14.863001   -4.808599   -0.400705
 H         22.637823    2.202537    1.089434
 H         11.241324    2.640470   -0.013668
 H        -11.241292    2.640474    0.013458
 C         -6.549851   -1.069248    0.108990
 C         -7.113268   -2.356836    0.150743
 S         -7.822309    0.157669    0.083752
 C         -8.516568   -2.326122    0.161489
 C         -9.092781   -1.055258    0.128810
 H         -9.111606   -3.232604    0.192153
 C          6.549866   -1.069247   -0.109377
 C          7.113282   -2.356830   -0.151244
 S          7.822324    0.157667   -0.083976
 C          8.516584   -2.326117   -0.161927
 C          9.092796   -1.055257   -0.129091
 H          9.111621   -3.232597   -0.192657
 C         -6.341194   -3.647820    0.182491
 H         -5.714488   -3.769574   -0.709259
 H         -5.681396   -3.706339    1.056455
 H         -7.026064   -4.499045    0.225492
 C          6.341212   -3.647812   -0.183153
 H          5.714422   -3.769630    0.708527
 H          5.681496   -3.706269   -1.057184
 H          7.026086   -4.499034   -0.226147
 C         -1.275377   -0.723873    0.019718
 C         -0.693623   -2.004654    0.010917
 S          0.000004    0.497220   -0.000278
 C          0.693639   -2.004653   -0.011213
 H         -1.284526   -2.913630    0.019944
 C          1.275390   -0.723871   -0.020126
 H          1.284546   -2.913628   -0.020119
 C          2.658344   -0.414698   -0.041593
 C          3.332401    0.826050   -0.038818
 S          3.823637   -1.745511   -0.076876
 C          4.722556    0.677140   -0.062347
 C          5.192798   -0.642007   -0.085459
 H          5.392681    1.530101   -0.064011
 C         -2.671223    2.176851    0.012686
 H         -2.027248    2.331185    0.886658
 H         -2.048958    2.308107   -0.880534
 H         -3.425505    2.968191    0.011807
 C          2.671237    2.176854   -0.013054
 H          2.027350    2.331258   -0.887080
 H          2.048883    2.308043    0.880113
 H          3.425521    2.968192   -0.012040
