       116
S0: Total Energy = -6744.52279357
 C         -0.430979   -1.302195    0.490838
 C         -1.347152   -0.230663    0.341335
 C         -2.759736   -0.237738    0.577211
 C         -3.384989    0.953354    0.309267
 S         -2.234374    2.170942   -0.273894
 C         -0.896049    1.034723   -0.137439
 C          0.430968    1.302499   -0.490952
 C          1.347141    0.230966   -0.341453
 C          2.759733    0.238044   -0.577329
 C          3.384966   -0.953046   -0.309362
 S          2.234372   -2.170632    0.273806
 C          0.896042   -1.034418    0.137332
 H         -3.292538   -1.106446    0.943985
 H          3.292559    1.106728   -0.944121
 C         -4.807460    1.224244    0.393973
 C         -5.487710    2.411923    0.630351
 C         -6.892293    2.186072    0.622142
 S         -8.270704    3.220607    0.874623
 C         -9.385683    1.847294    0.673108
 C         -8.689056    0.672458    0.427806
 C         -7.293633    0.871307    0.397741
 S         -5.908043   -0.154369    0.159158
 H         -9.174825   -0.286488    0.289816
 C          4.807446   -1.223968   -0.394029
 C          5.487593   -2.411583   -0.631017
 C          6.892190   -2.185850   -0.622630
 S          8.270545   -3.220355   -0.875557
 C          9.385619   -1.847241   -0.673194
 C          8.689062   -0.672480   -0.427340
 C          7.293619   -0.871230   -0.397504
 S          5.908091    0.154419   -0.158451
 H          9.174886    0.286360   -0.288804
 C        -10.819992    2.001118    0.731218
 C        -11.597175    3.069318    1.202207
 C        -12.970164    2.786193    1.097971
 C        -13.292073    1.542463    0.558288
 S        -11.817337    0.679931    0.146407
 H        -13.740023    3.480380    1.420897
 C         10.819921   -2.001142   -0.731297
 C         11.597050   -3.069295   -1.202486
 C         12.970053   -2.786284   -1.098143
 C         13.292030   -1.542684   -0.558201
 S         11.817338   -0.680140   -0.146192
 H         13.739874   -3.480465   -1.421170
 C        -14.634556    1.105067    0.391579
 H        -15.367399    1.840510    0.729310
 C        -15.196450   -0.039831   -0.101985
 C        -16.673662   -0.206034   -0.142165
 O        -17.519155    0.597704    0.233270
 C        -16.932666   -1.553211   -0.732768
 C        -18.141529   -2.192545   -0.987735
 C        -18.098852   -3.470281   -1.555178
 C        -16.873742   -4.085465   -1.856857
 C        -15.660811   -3.438582   -1.598502
 C        -15.708489   -2.168024   -1.033969
 C        -14.581338   -1.259832   -0.657897
 O        -13.387485   -1.512848   -0.800206
 H        -19.025155   -3.996791   -1.766763
 H        -16.871095   -5.078469   -2.297272
 C         14.634539   -1.105422   -0.391351
 H         15.367338   -1.840892   -0.729121
 C         15.196506    0.039375    0.102365
 C         16.673727    0.205482    0.142564
 O         17.519174   -0.598310   -0.232860
 C         16.932812    1.552633    0.733192
 C         18.141715    2.191885    0.988172
 C         18.099118    3.469618    1.555627
 C         16.874046    4.084877    1.857308
 C         15.661074    3.438073    1.598943
 C         15.708672    2.167518    1.034396
 C         14.581467    1.259397    0.658316
 O         13.387630    1.512469    0.800661
 H         19.025453    3.996067    1.767220
 H         16.871459    5.077876    2.297733
 C         -0.832833   -2.629637    0.987411
 C         -0.639457   -3.853788    0.394620
 C         -1.116006   -4.949770    1.173456
 C         -1.671006   -4.579322    2.369780
 S         -1.609905   -2.840993    2.552948
 H         -0.187219   -3.965011   -0.585017
 H         -1.054997   -5.984816    0.852410
 C          0.832821    2.629945   -0.987520
 C          0.639446    3.854090   -0.394715
 C          1.116004    4.950078   -1.173537
 C          1.671007    4.579641   -2.369863
 S          1.609866    2.841317   -2.553065
 H          0.187215    3.965303    0.584927
 H          1.055005    5.985120   -0.852476
 C         -4.882422    3.765215    0.891757
 H         -3.897413    3.689898    1.357853
 H         -4.770521    4.342137   -0.035100
 C          4.882070   -3.764637   -0.893124
 H          3.897410   -3.688865   -1.359899
 H          5.526850   -4.344934   -1.562238
 C        -11.084185    4.365598    1.773226
 H        -10.585326    4.979179    1.013201
 H        -11.914088    4.953709    2.175387
 C         11.084001   -4.365437   -1.773765
 H         11.913917   -4.953648   -2.175751
 H         10.584830   -4.979005   -1.013937
 C         -2.268718   -5.453009    3.432274
 H         -3.323189   -5.212895    3.613703
 H         -2.210014   -6.500886    3.122581
 C          2.268736    5.453335   -3.432341
 H          2.210054    6.501208   -3.122628
 H          3.323202    5.213202   -3.613775
 H          1.740999    5.354221   -4.388468
 H         -1.740984   -5.353867    4.388401
 H         -5.526929    4.345423    1.561219
 H        -10.366274    4.200907    2.584414
 H          4.769290   -4.341713    0.033528
 H         10.366343   -4.200551   -2.585139
 H         19.084609    1.708192    0.751506
 H        -19.084454   -1.708911   -0.751072
 H         14.708815    3.906314    1.829014
 H        -14.708522   -3.906764   -1.828567
       116
T1: Total Energy = -6744.47757568
 C          0.493083   -1.374380    0.369699
 C          1.373282   -0.258577    0.228550
 C          2.791072   -0.255067    0.298474
 C          3.371550    0.993740    0.177961
 S          2.135865    2.248412   -0.030892
 C          0.841985    1.056371    0.059782
 C         -0.523483    1.345141    0.036551
 C         -1.404033    0.227732    0.173231
 C         -2.813212    0.221402    0.102044
 C         -3.405378   -1.040868    0.232760
 S         -2.155745   -2.291232    0.446735
 C         -0.867450   -1.090201    0.344709
 H          3.372022   -1.153824    0.464747
 H         -3.396308    1.117669   -0.068105
 C          4.780751    1.287051    0.173890
 C          5.453793    2.503805    0.303859
 C          6.855129    2.302350    0.245604
 S          8.224274    3.375851    0.350311
 C          9.355861    2.011690    0.172399
 C          8.668757    0.809838    0.041274
 C          7.273630    0.981190    0.081636
 S          5.903070   -0.084392   -0.026262
 H          9.164023   -0.147014   -0.075106
 C         -4.789549   -1.316306    0.207926
 C         -5.490949   -2.557231    0.286823
 C         -6.862086   -2.355933    0.218186
 S         -8.240775   -3.444667    0.256214
 C         -9.377746   -2.065902    0.095037
 C         -8.659692   -0.835015    0.019077
 C         -7.293901   -1.010047    0.087505
 S         -5.921135    0.067839    0.052650
 H         -9.157306    0.121609   -0.082173
 C         10.785921    2.187479    0.166179
 C         11.557833    3.348955    0.330155
 C         12.931673    3.064028    0.259383
 C         13.262524    1.727058    0.045585
 S         11.794856    0.768831   -0.077577
 H         13.696405    3.827620    0.364159
 C        -10.768642   -2.213234    0.053109
 C        -11.587567   -3.384784    0.117237
 C        -12.933003   -3.078032    0.039390
 C        -13.255247   -1.702556   -0.086247
 S        -11.774520   -0.749148   -0.106091
 H        -13.714091   -3.831261    0.070018
 C         14.607533    1.276451   -0.047941
 H         15.336332    2.081364    0.065271
 C         15.176018    0.048839   -0.249180
 C         16.654295   -0.105279   -0.297537
 O         17.494130    0.778352   -0.172583
 C         16.921851   -1.556143   -0.529421
 C         18.134739   -2.225700   -0.654448
 C         18.099975   -3.607185   -0.870882
 C         16.878695   -4.293512   -0.958798
 C         15.661637   -3.615816   -0.832359
 C         15.701385   -2.242007   -0.617083
 C         14.568672   -1.280509   -0.447501
 O         13.376123   -1.575356   -0.473965
 H         19.029581   -4.159820   -0.972950
 H         16.882268   -5.366587   -1.127605
 C        -14.578393   -1.239442   -0.177138
 H        -15.321426   -2.037430   -0.140536
 C        -15.135806    0.023673   -0.304901
 C        -16.602910    0.190594   -0.379225
 O        -17.455741   -0.693822   -0.339641
 C        -16.862927    1.657748   -0.514029
 C        -18.066658    2.343471   -0.622171
 C        -18.018335    3.738695   -0.738994
 C        -16.792218    4.418363   -0.746366
 C        -15.582036    3.721120   -0.636762
 C        -15.636655    2.337481   -0.520998
 C        -14.516594    1.350221   -0.390323
 O        -13.319720    1.644104   -0.363834
 H        -18.942034    4.304148   -0.825388
 H        -16.783268    5.500904   -0.838431
 C          0.984486   -2.751610    0.537496
 C          0.667321   -3.653036    1.525045
 C          1.287987   -4.926294    1.359362
 C          2.079072   -5.016086    0.244517
 S          2.066763   -3.502265   -0.631245
 H          0.024542   -3.402816    2.362205
 H          1.157372   -5.751626    2.051920
 C         -1.010402    2.721453   -0.124438
 C         -0.642166    3.647851   -1.072325
 C         -1.273377    4.915201   -0.911013
 C         -2.123721    4.978394    0.161889
 S         -2.156652    3.445274    1.001234
 H          0.041559    3.417719   -1.882186
 H         -1.108190    5.756236   -1.576669
 C          4.829401    3.860286    0.496288
 H          4.381930    4.236759   -0.431686
 H          4.044713    3.843635    1.258819
 C         -4.854495   -3.913131    0.421678
 H         -4.281562   -4.000598    1.351925
 H         -5.618003   -4.696058    0.429108
 C         11.039816    4.744743    0.558108
 H         10.428838    4.812827    1.465790
 H         11.875226    5.441831    0.668714
 C        -11.084226   -4.795882    0.252024
 H        -11.924876   -5.494858    0.276673
 H        -10.438179   -5.080663   -0.587008
 C          2.878104   -6.188698   -0.241145
 H          3.949224   -5.959739   -0.293158
 H          2.746195   -7.032185    0.443328
 C         -2.949663    6.138934    0.630718
 H         -2.787257    6.996241   -0.029522
 H         -4.021082    5.905875    0.625306
 H         -2.685622    6.443029    1.650638
 H          2.563360   -6.512423   -1.240426
 H          5.583965    4.586260    0.813804
 H         10.424972    5.096087   -0.279023
 H         -4.171167   -4.123834   -0.408454
 H        -10.506085   -4.937045    1.173043
 H        -19.011789    1.808478   -0.615666
 H         19.074796   -1.686644   -0.585235
 H        -14.627585    4.239175   -0.641658
 H         14.712296   -4.138607   -0.899074
       116
S1: Total Energy = -6744.46194688
 C          0.512821   -1.367448    0.113302
 C          1.391186   -0.236867   -0.007072
 C          2.796149   -0.229385    0.045381
 C          3.382380    1.036441   -0.050756
 S          2.135420    2.287653   -0.199912
 C          0.846896    1.084379   -0.126237
 C         -0.512829    1.367385   -0.113753
 C         -1.391193    0.236807    0.006643
 C         -2.796156    0.229333   -0.045812
 C         -3.382389   -1.036494    0.050279
 S         -2.135434   -2.287714    0.199410
 C         -0.846905   -1.084441    0.125786
 H          3.384426   -1.128065    0.180695
 H         -3.384429    1.128013   -0.181142
 C          4.774842    1.318821   -0.043983
 C          5.459458    2.553241   -0.058357
 C          6.847815    2.350011   -0.040135
 S          8.222017    3.431756   -0.041191
 C          9.354883    2.052528   -0.004675
 C          8.659834    0.836678    0.007864
 C          7.273490    1.011673   -0.012051
 S          5.907959   -0.065914   -0.012641
 H          9.156891   -0.125571    0.031910
 C         -4.774854   -1.318866    0.043479
 C         -5.459475   -2.553288    0.057406
 C         -6.847831   -2.350045    0.039261
 S         -8.222040   -3.431783    0.039884
 C         -9.354898   -2.052535    0.003881
 C         -8.659843   -0.836685   -0.008209
 C         -7.273499   -1.011695    0.011660
 S         -5.907963    0.065885    0.012619
 H         -9.156894    0.125575   -0.031946
 C         10.773659    2.218872    0.005548
 C         11.558814    3.390862    0.012790
 C         12.925990    3.094861    0.023904
 C         13.257579    1.733617    0.024825
 S         11.784570    0.770366    0.010569
 H         13.694396    3.861932    0.031753
 C        -10.773676   -2.218864   -0.006421
 C        -11.558840   -3.390843   -0.014465
 C        -12.926013   -3.094824   -0.025394
 C        -13.257591   -1.733576   -0.025375
 S        -11.784574   -0.770348   -0.010512
 H        -13.694426   -3.861883   -0.033776
 C         14.594508    1.269672    0.035275
 H         15.328317    2.077424    0.043655
 C         15.161715    0.015009    0.036655
 C         16.634009   -0.144979    0.049098
 O         17.479674    0.746075    0.060063
 C         16.905016   -1.615228    0.045631
 C         18.116492   -2.296402    0.053451
 C         18.081471   -3.696691    0.047130
 C         16.860704   -4.386244    0.033302
 C         15.642858   -3.694169    0.025553
 C         15.683661   -2.304753    0.031943
 C         14.553202   -1.322349    0.026130
 O         13.358334   -1.622109    0.014450
 H         19.011246   -4.258712    0.052914
 H         16.862319   -5.472711    0.028564
 C        -14.594513   -1.269608   -0.035482
 H        -15.328334   -2.077342   -0.044429
 C        -15.161700   -0.014934   -0.035935
 C        -16.633992    0.145088   -0.048220
 O        -17.479673   -0.745943   -0.059805
 C        -16.904972    1.615339   -0.043630
 C        -18.116438    2.296539   -0.050877
 C        -18.081393    3.696822   -0.043486
 C        -16.860614    4.386344   -0.029189
 C        -15.642779    3.694242   -0.022030
 C        -15.683606    2.304833   -0.029471
 C        -14.553163    1.322404   -0.024428
 O        -13.358289    1.622134   -0.012564
 H        -19.011159    4.258863   -0.048798
 H        -16.862210    5.472807   -0.023623
 C          1.011078   -2.742798    0.227107
 C          0.651285   -3.701182    1.147423
 C          1.289736   -4.957714    0.944705
 C          2.137049   -4.981346   -0.132928
 S          2.159235   -3.422934   -0.923517
 H         -0.029025   -3.500163    1.967773
 H          1.132589   -5.820330    1.583957
 C         -1.011097    2.742728   -0.227595
 C         -0.651346    3.701077   -1.147964
 C         -1.289784    4.957618   -0.945259
 C         -2.137055    4.981287    0.132405
 S         -2.159262    3.422882    0.923008
 H          0.028940    3.500032   -1.968328
 H         -1.132651    5.820217   -1.584539
 C          4.824104    3.916109   -0.083975
 H          4.246972    4.076922   -1.002140
 H          4.144717    4.063065    0.763026
 C         -4.824121   -3.916166    0.082498
 H         -4.247112   -4.077386    1.000669
 H         -5.587919   -4.697159    0.032590
 C         11.044810    4.806114    0.010994
 H         10.416612    5.016000    0.884917
 H         11.881699    5.509895    0.028756
 C        -11.044845   -4.806099   -0.013659
 H        -11.881736   -5.509861   -0.032089
 H        -10.416503   -5.015325   -0.887637
 C          2.966532   -6.122072   -0.641605
 H          4.035963   -5.880437   -0.641159
 H          2.817514   -6.998041   -0.003231
 C         -2.966503    6.122036    0.641089
 H         -2.817483    6.997994    0.002700
 H         -4.035938    5.880422    0.640672
 H         -2.693466    6.399844    1.666079
 H          2.693526   -6.399872   -1.666605
 H          5.587911    4.697122   -0.034510
 H         10.447383    5.024897   -0.882250
 H         -4.144619   -4.062740   -0.764477
 H        -10.447567   -5.025567    0.879517
 H        -19.056839    1.753441   -0.061822
 H         19.056884   -1.753281    0.064016
 H        -14.692900    4.220470   -0.011006
 H         14.692988   -4.220420    0.014877
