       116
S0: Total Energy = -6942.98325019
 C          0.444672   -1.247002   -0.524073
 C          1.348468   -0.170232   -0.340927
 C          2.758974   -0.150514   -0.587991
 C          3.371990    1.036756   -0.278097
 S          2.211508    2.216590    0.360516
 C          0.886053    1.069714    0.190713
 C         -0.440899    1.306450    0.566093
 C         -1.344693    0.229512    0.383449
 C         -2.754995    0.208584    0.632997
 C         -3.366535   -0.980230    0.326838
 S         -2.206535   -2.158883   -0.314205
 C         -0.882058   -1.010589   -0.147798
 H          3.299261   -0.997719   -0.992200
 H         -3.295914    1.055104    1.037799
 C          4.790711    1.327091   -0.361377
 C          5.455980    2.530993   -0.554912
 C          6.862943    2.320867   -0.563846
 S          8.227923    3.380194   -0.782535
 C          9.359406    2.012640   -0.641326
 C          8.677056    0.820970   -0.438904
 C          7.280152    1.002654   -0.393663
 S          5.907673   -0.047341   -0.187470
 H          9.173617   -0.137385   -0.341096
 C         -4.784222   -1.275251    0.416210
 C         -5.442513   -2.478249    0.635718
 C         -6.850612   -2.275492    0.641944
 S         -8.208908   -3.337340    0.887693
 C         -9.347997   -1.979662    0.719230
 C         -8.673524   -0.788849    0.488813
 C         -7.275332   -0.963571    0.444205
 S         -5.908445    0.089204    0.214700
 H         -9.176544    0.164080    0.372613
 C         10.791174    2.183543   -0.702784
 C         11.554190    3.284196   -1.121840
 C         12.929948    3.010482   -1.043027
 C         13.269099    1.742032   -0.573858
 S         11.806040    0.842607   -0.199301
 H         13.690229    3.729153   -1.333465
 C        -10.778702   -2.159381    0.785107
 C        -11.532876   -3.242034    1.262282
 C        -12.910682   -2.984042    1.167871
 C        -13.259443   -1.746528    0.628407
 S        -11.803319   -0.857909    0.204607
 H        -13.665527   -3.691240    1.497782
 C         14.616636    1.313743   -0.439837
 H         15.337665    2.077623   -0.737178
 C         15.199799    0.149742   -0.016998
 C         16.675324    0.006266    0.007372
 O         17.510690    0.840363   -0.321120
 C         16.962559   -1.371043    0.516622
 C         18.188576   -1.989152    0.723872
 C         18.185608   -3.300507    1.214911
 C         16.985388   -3.966284    1.487953
 C         15.769133   -3.319254    1.269565
 C         15.744202   -2.018571    0.782838
 C         14.599693   -1.108366    0.465036
 O         13.408672   -1.376563    0.589254
 H         19.124900   -3.816490    1.389643
 H         16.980685   -4.982280    1.868765
 F         14.625732   -3.971675    1.536579
 C        -14.610563   -1.338256    0.469926
 H        -15.324697   -2.088020    0.815965
 C        -15.204264   -0.208967   -0.025767
 C        -16.681171   -0.081432   -0.057581
 O        -17.508257   -0.898971    0.328441
 C        -16.982006    1.254622   -0.659968
 C        -18.214241    1.844788   -0.907870
 C        -18.224654    3.118510   -1.489442
 C        -17.031236    3.774800   -1.810855
 C        -15.808537    3.156334   -1.549890
 C        -15.770160    1.893551   -0.972658
 C        -14.616379    1.019130   -0.593116
 O        -13.428026    1.290289   -0.735555
 H        -19.169110    3.611957   -1.698118
 H        -17.036727    4.761486   -2.262190
 F        -14.672004    3.798967   -1.865206
 C          0.858558   -2.548267   -1.076824
 C          0.686802   -3.797723   -0.532085
 C          1.169332   -4.855120   -1.359166
 C          1.707335   -4.429650   -2.544952
 S          1.622322   -2.686191   -2.657078
 H          0.246023   -3.954464    0.446550
 H          1.124775   -5.902917   -1.079515
 C         -0.854518    2.607950    1.118502
 C         -0.681486    3.857174    0.573623
 C         -1.163788    4.915101    1.400153
 C         -1.702850    4.490274    2.585687
 S         -1.619181    2.746775    2.698237
 H         -0.239925    4.013360   -0.404751
 H         -1.118301    5.962804    1.120299
 C          4.833766    3.886322   -0.759801
 H          3.846248    3.817638   -1.221578
 H          4.722436    4.425825    0.189373
 C         -4.813112   -3.825477    0.869563
 H         -3.819258   -3.741229    1.314653
 H         -5.435005   -4.421417    1.546681
 C         11.023482    4.603701   -1.618437
 H         10.517949    5.166864   -0.824626
 H         11.844952    5.224126   -1.987830
 C        -10.991778   -4.527687    1.831330
 H        -11.807135   -5.127911    2.245086
 H        -10.492240   -5.135542    1.067221
 C          2.305481   -5.251744   -3.647648
 H          3.355700   -4.992366   -3.827193
 H          2.260794   -6.312180   -3.381447
 C         -2.301126    5.313031    3.687820
 H         -2.255436    6.373384    3.421454
 H         -3.351671    5.054503    3.866685
 H         -1.765150    5.179741    4.635148
 H          1.768742   -5.118689   -4.594577
 H          5.466725    4.499076   -1.411043
 H         10.306593    4.475345   -2.437071
 H         -4.714130   -4.391043   -0.065711
 H        -10.266953   -4.348225    2.633071
 H        -19.135158    1.328970   -0.656326
 H         19.114932   -1.466145    0.509988
       116
T1: Total Energy = -6942.93825002
 C         -0.541091   -1.309988   -0.257635
 C         -1.402044   -0.170027   -0.202588
 C         -2.811825   -0.151232   -0.176243
 C         -3.385533    1.126870   -0.169327
 S         -2.116121    2.374784   -0.205459
 C         -0.845733    1.150654   -0.238999
 C          0.514944    1.414359   -0.342049
 C          1.375871    0.275120   -0.393231
 C          2.793665    0.257247   -0.422442
 C          3.356581   -1.006734   -0.426325
 S          2.099239   -2.257069   -0.386978
 C          0.824330   -1.042131   -0.359369
 H         -3.411211   -1.052774   -0.188652
 H          3.389419    1.161570   -0.431453
 C         -4.766166    1.416595   -0.133409
 C         -5.453870    2.667133   -0.171010
 C         -6.827541    2.477888   -0.116842
 S         -8.195500    3.580634   -0.128521
 C         -9.346168    2.208733   -0.022750
 C         -8.641683    0.969390    0.016032
 C         -7.273379    1.132890   -0.036295
 S         -5.912567    0.040341   -0.023937
 H         -9.148962    0.014532    0.078385
 C          4.760664   -1.318231   -0.434909
 C          5.416391   -2.547553   -0.547308
 C          6.820186   -2.365902   -0.499749
 S          8.173461   -3.460770   -0.594502
 C          9.324297   -2.110791   -0.439849
 C          8.656095   -0.896329   -0.326096
 C          7.258893   -1.048261   -0.359185
 S          5.905613    0.040769   -0.274370
 H          9.166908    0.054941   -0.233452
 C        -10.736899    2.368304    0.016443
 C        -11.544510    3.547688   -0.023413
 C        -12.893434    3.251108    0.041545
 C        -13.228078    1.876120    0.133868
 S        -11.755289    0.910313    0.137092
 H        -13.667611    4.011859    0.024832
 C         10.750714   -2.310245   -0.413095
 C         11.511364   -3.455960   -0.698899
 C         12.885863   -3.201580   -0.566561
 C         13.227985   -1.904858   -0.182904
 S         11.768889   -0.949469    0.032287
 H         13.644229   -3.955676   -0.753599
 C        -14.555589    1.423883    0.209911
 H        -15.289771    2.230463    0.188905
 C        -15.129832    0.164358    0.308379
 C        -16.594029    0.013810    0.375240
 O        -17.442046    0.903852    0.352815
 C        -16.875422   -1.454701    0.478934
 C        -18.094536   -2.110816    0.569225
 C        -18.081493   -3.510028    0.658168
 C        -16.877160   -4.219720    0.655881
 C        -15.666308   -3.529454    0.563528
 C        -15.652402   -2.145318    0.474284
 C        -14.519232   -1.167695    0.366612
 O        -13.323993   -1.460607    0.335386
 H        -19.016270   -4.058096    0.730406
 H        -16.861951   -5.302556    0.724764
 F        -14.517790   -4.230799    0.563295
 C         14.575387   -1.492701   -0.004518
 H         15.294396   -2.290540   -0.199712
 C         15.159743   -0.310309    0.362501
 C         16.634429   -0.193366    0.464299
 O         17.467487   -1.065493    0.247870
 C         16.923511    1.211806    0.888788
 C         18.149477    1.819756    1.124222
 C         18.148577    3.163260    1.519076
 C         16.950392    3.869827    1.671756
 C         15.734096    3.231952    1.427998
 C         15.707049    1.900152    1.034484
 C         14.562165    0.991552    0.714001
 O         13.372416    1.291265    0.744315
 H         19.087870    3.672608    1.712271
 H         16.947243    4.910696    1.978124
 F         14.592710    3.923615    1.579882
 C         -1.049360   -2.687577   -0.212465
 C         -0.763834   -3.727265   -1.066552
 C         -1.391619   -4.954591   -0.705524
 C         -2.156373   -4.873316    0.428893
 S         -2.110541   -3.250181    1.076669
 H         -0.142304   -3.608384   -1.947398
 H         -1.286050   -5.872196   -1.275286
 C          1.026560    2.793592   -0.386571
 C          0.783703    3.818918    0.495606
 C          1.402214    5.050045    0.127491
 C          2.117510    4.983699   -1.039042
 S          2.033896    3.370909   -1.710697
 H          0.197085    3.688358    1.398611
 H          1.325266    5.958881    0.715655
 C         -4.801978    4.019153   -0.261920
 H         -4.160604    4.217776    0.604317
 H         -4.181473    4.109466   -1.160441
 C          4.771115   -3.898672   -0.705336
 H          4.069681   -3.918969   -1.546066
 H          5.528985   -4.665375   -0.890398
 C        -11.028294    4.956977   -0.124318
 H        -10.440189    5.111882   -1.036732
 H        -11.862806    5.663415   -0.142408
 C         10.979536   -4.803052   -1.112636
 H         11.807040   -5.473522   -1.361124
 H         10.400523   -5.278508   -0.311759
 C         -2.953327   -5.953948    1.096613
 H         -4.019719   -5.703563    1.145150
 H         -2.850733   -6.887064    0.534531
 C          2.891875    6.071117   -1.722471
 H          2.822091    6.994253   -1.139161
 H          3.953109    5.814671   -1.824138
 H          2.506746    6.277244   -2.728242
 H         -2.612939   -6.138138    2.122542
 H         -5.558324    4.808015   -0.300676
 H        -10.388021    5.218990    0.726497
 H          4.218548   -4.193567    0.194499
 H         10.329298   -4.734956   -1.992109
 H         19.074204    1.264893    1.004230
 H        -19.024823   -1.551908    0.570388
       116
S1: Total Energy = -6942.92330874
 C         -0.536725   -1.360795   -0.082965
 C         -1.394443   -0.212931    0.024745
 C         -2.799296   -0.182904   -0.012767
 C         -3.363369    1.094371    0.065479
 S         -2.094625    2.327020    0.176508
 C         -0.827124    1.101115    0.111790
 C          0.536754    1.360859    0.077561
 C          1.394469    0.212991   -0.030085
 C          2.799317    0.182958    0.007600
 C          3.363396   -1.094315   -0.070614
 S          2.094659   -2.326953   -0.181912
 C          0.827152   -1.101050   -0.117210
 H         -3.403881   -1.074045   -0.123483
 H          3.403886    1.074093    0.118451
 C         -4.751183    1.398982    0.065560
 C         -5.415792    2.644311    0.079710
 C         -6.807389    2.462957    0.068370
 S         -8.164612    3.565864    0.073685
 C         -9.318556    2.204166    0.045287
 C         -8.642696    0.977633    0.032775
 C         -7.253815    1.131288    0.045899
 S         -5.905927    0.032223    0.043721
 H         -9.154188    0.022839    0.014736
 C          4.751211   -1.398935   -0.070423
 C          5.415824   -2.644259   -0.084602
 C          6.807419   -2.462908   -0.072780
 S          8.164652   -3.565807   -0.077878
 C          9.318581   -2.204110   -0.048706
 C          8.642708   -0.977584   -0.036184
 C          7.253833   -1.131244   -0.049862
 S          5.905943   -0.032180   -0.047946
 H          9.154188   -0.022790   -0.017821
 C        -10.734830    2.391656    0.036992
 C        -11.502808    3.575295    0.049486
 C        -12.873741    3.299583    0.034286
 C        -13.225691    1.942913    0.009726
 S        -11.766171    0.958379    0.006079
 H        -13.630727    4.077909    0.040773
 C         10.734848   -2.391602   -0.039466
 C         11.502854   -3.575205   -0.053482
 C         12.873767   -3.299502   -0.036521
 C         13.225681   -1.942877   -0.009041
 S         11.766139   -0.958371   -0.004888
 H         13.630772   -4.077799   -0.043846
 C        -14.568897    1.501362   -0.008157
 H        -15.288716    2.321552   -0.000043
 C        -15.160535    0.256581   -0.033406
 C        -16.630872    0.123930   -0.045226
 O        -17.465825    1.025250   -0.036107
 C        -16.932078   -1.342903   -0.070876
 C        -18.162133   -1.985059   -0.088176
 C        -18.170112   -3.386770   -0.110971
 C        -16.975557   -4.113242   -0.116070
 C        -15.753440   -3.437432   -0.098183
 C        -15.718257   -2.050560   -0.075471
 C        -14.569016   -1.088276   -0.052817
 O        -13.377822   -1.395577   -0.051686
 H        -19.113777   -3.924041   -0.124922
 H        -16.977071   -5.198231   -0.133594
 F        -14.614661   -4.153791   -0.103181
 C         14.568866   -1.501365    0.011154
 H         15.288693   -2.321542    0.002240
 C         15.160479   -0.256635    0.039532
 C         16.630792   -0.123997    0.053312
 O         17.465764   -1.025292    0.043411
 C         16.931954    1.342790    0.082256
 C         18.161983    1.984918    0.102275
 C         18.169926    3.386580    0.127923
 C         16.975362    4.113031    0.133121
 C         15.753270    3.437254    0.112440
 C         15.718119    2.050428    0.086869
 C         14.568921    1.088170    0.060916
 O         13.377722    1.395453    0.059046
 H         19.113571    3.923826    0.144049
 H         16.976845    5.197982    0.152851
 F         14.614493    4.153621    0.117579
 C         -1.059766   -2.729238   -0.161483
 C         -0.728045   -3.713546   -1.064968
 C         -1.385570   -4.953951   -0.827002
 C         -2.219384   -4.939243    0.261422
 S         -2.204859   -3.363909    1.017809
 H         -0.054853   -3.542436   -1.897888
 H         -1.251703   -5.832876   -1.449228
 C          1.059817    2.729295    0.156048
 C          0.728086    3.713647    1.059481
 C          1.385659    4.954023    0.821497
 C          2.219528    4.939246   -0.266885
 S          2.205024    3.363871   -1.023186
 H          0.054845    3.542595    1.892372
 H          1.251782    5.832979    1.443677
 C         -4.758320    3.996628    0.099857
 H         -4.161506    4.143290    1.007645
 H         -4.092824    4.136855   -0.759336
 C          4.758354   -3.996569   -0.105216
 H          4.162063   -4.143157   -1.013367
 H          5.510085   -4.790032   -0.073406
 C        -10.967804    4.982485    0.075901
 H        -10.345822    5.201635   -0.800236
 H        -11.794251    5.698657    0.081795
 C         10.967894   -4.982346   -0.083160
 H         11.794361   -5.698481   -0.090844
 H         10.346043   -5.203600    0.792548
 C         -3.062098   -6.053562    0.805419
 H         -4.127751   -5.795777    0.805705
 H         -2.930539   -6.947956    0.189358
 C          3.062297    6.053520   -0.810887
 H          2.930715    6.947950   -0.194883
 H          4.127945    5.795714   -0.811089
 H          2.786296    6.308233   -1.841011
 H         -2.786025   -6.308325    1.835510
 H         -5.510080    4.790081    0.068446
 H        -10.357848    5.173049    0.967027
 H          4.092356   -4.136850    0.753575
 H         10.357813   -5.170807   -0.974641
 H         19.084197    1.412906    0.097843
 H        -19.084335   -1.413027   -0.083863
