       138
S0: Total Energy = -8069.58990632
 C          9.142257   -0.540469   -0.040961
 C          8.400853    0.608564    0.069463
 C          6.986193    0.399393    0.031300
 C          6.657740   -0.982967   -0.102245
 S          8.111879   -1.973180   -0.200768
 H          8.848095    1.587377    0.194010
 C          5.957241    1.367585    0.161062
 C          2.162566    0.437679    0.094542
 C          2.903909   -0.711725   -0.013829
 C          4.318509   -0.502811    0.026471
 C          4.647027    0.879577    0.159879
 S          3.193044    1.870094    0.256844
 H          2.456562   -1.690215   -0.140516
 C          5.347525   -1.471058   -0.102987
 C          6.232202    2.808194    0.292313
 C          5.788900    3.673562    1.263086
 C          6.204753    5.022855    1.061389
 C          6.962120    5.206636   -0.065099
 S          7.174179    3.688339   -0.906835
 H          5.198340    3.348021    2.112691
 H          5.953709    5.834639    1.736678
 C          5.072378   -2.911627   -0.234040
 C          5.515915   -3.777458   -1.204309
 C          5.099484   -5.126530   -1.002405
 C          4.341433   -5.309697    0.123731
 S          4.129411   -3.791062    0.964850
 H          6.106992   -3.452406   -2.053737
 H          5.350592   -5.938615   -1.677307
 C          3.737947   -6.579285    0.646589
 H          2.645198   -6.515780    0.713404
 H          3.986988   -7.407962   -0.023234
 H          4.113315   -6.829250    1.646148
 C          7.564898    6.476592   -0.587885
 H          7.315960    7.304972    0.082347
 H          8.657633    6.413470   -0.655337
 H          7.188887    6.726763   -1.587151
 C         10.576900   -0.684671   -0.040055
 C         11.328667   -1.849323   -0.075701
 S         11.625478    0.716364    0.007793
 C         12.717212   -1.633247   -0.061315
 H         10.882426   -2.837474   -0.106003
 C         13.074107   -0.288719   -0.013904
 H         13.462107   -2.422289   -0.082743
 C         14.424402    0.197875    0.009804
 C         15.595351   -0.565743   -0.017409
 N         14.818962    1.533775    0.063315
 C         16.071454   -1.927668   -0.071584
 C         16.720923    0.300353    0.018573
 C         16.245472    1.662848    0.071433
 C         13.988168    2.725233    0.112221
 N         17.498962   -1.797423   -0.065465
 O         15.505851   -3.020940   -0.115127
 C         17.891469   -0.462804   -0.011450
 O         16.811973    2.755661    0.116135
 H         14.674199    3.572924    0.150735
 H         13.357275    2.737376    1.006181
 H         13.362606    2.814842   -0.781133
 C         18.330735   -2.988284   -0.111749
 C         19.246233    0.023900    0.008818
 H         17.646001   -3.837195   -0.144033
 H         18.958863   -3.003221   -1.007615
 H         18.959922   -3.071858    0.779562
 C         19.602996    1.365442    0.064689
 S         20.697316   -0.979055   -0.033522
 H         18.858481    2.154442    0.097515
 C         21.002317    1.577905    0.073220
 C         21.721086    0.410383    0.024242
 H         21.461170    2.559366    0.114148
 H         22.795501    0.281959    0.018651
 C          0.728286    0.582798    0.088136
 S         -0.321700   -0.817724    0.057795
 C         -0.022386    1.748895    0.103841
 C         -1.769428    0.189387    0.057586
 C         -1.410752    1.534448    0.086634
 H          0.425123    2.736802    0.120222
 C         -3.119415   -0.295368    0.032185
 H         -2.154811    2.324573    0.091620
 C         -4.290393    0.470920    0.032137
 N         -3.516325   -1.631093    0.002556
 C         -5.415724   -0.392838    0.002070
 C         -4.764057    1.835573    0.050613
 C         -4.942384   -1.757315   -0.017239
 C         -2.687503   -2.824940   -0.009066
 C         -6.586879    0.373723    0.000111
 N         -6.190012    1.709373    0.029525
 O         -4.194677    2.927483    0.078088
 O         -5.511696   -2.849409   -0.043962
 H         -3.374648   -3.672275   -0.031511
 H         -2.049468   -2.861003   -0.897291
 H         -2.069447   -2.892257    0.891402
 C         -7.936745   -0.110638   -0.027841
 C         -7.019013    2.903156    0.042066
 S         -9.384832    0.896501   -0.039414
 C         -8.295504   -1.455585   -0.052840
 H         -6.332140    3.750583    0.068418
 H         -7.659381    2.936538    0.928670
 H         -7.634765    2.972698   -0.859803
 C        -10.434453   -0.503933   -0.068322
 C         -9.684076   -1.669979   -0.075442
 H         -7.551553   -2.245863   -0.051637
 C        -11.869554   -0.358738   -0.083131
 H        -10.131907   -2.657745   -0.089306
 C        -12.610880    0.789444    0.022488
 S        -12.898664   -1.791629   -0.255058
 C        -14.027307    0.580608   -0.027747
 H        -12.164235    1.767593    0.154407
 C        -14.353798   -0.801324   -0.164853
 C        -15.056896    1.546390    0.095604
 C        -15.664535   -1.289511   -0.175422
 C        -16.369685    1.056801    0.084551
 C        -14.783721    2.986839    0.230675
 C        -16.694491   -0.324990   -0.051854
 C        -15.935637   -2.731576   -0.310350
 S        -17.831939    2.040722    0.167346
 C        -15.243492    3.853577    1.192498
 S        -13.820607    3.866365   -0.952520
 C        -18.119953   -0.535313   -0.095412
 C        -15.494148   -3.592932   -1.285104
 S        -16.871090   -3.617028    0.889330
 C        -18.831952    0.614997    0.009487
 C        -14.823300    5.202476    0.997433
 H        -15.849905    3.528978    2.031130
 C        -14.046378    5.385412   -0.115798
 H        -18.577119   -1.509900   -0.211326
 C        -15.906191   -4.944115   -1.085814
 H        -14.906681   -3.263497   -2.135396
 C        -16.658910   -5.132828    0.042808
 H        -19.908792    0.724562    0.003865
 H        -15.085567    6.014791    1.667875
 C        -13.433754    6.654764   -0.628565
 H        -15.655731   -5.753418   -1.764381
 C        -17.257722   -6.405505    0.563690
 H        -13.694138    7.483750    0.036602
 H        -12.339980    6.591269   -0.676546
 H        -13.791683    6.904658   -1.634559
 H        -18.350440   -6.344892    0.634319
 H        -17.009025   -7.231562   -0.109572
 H        -16.878531   -6.658020    1.561214
       138
T1: Total Energy = -8069.55854517
 C         -9.145026   -0.546384    0.044446
 C         -8.397841    0.601581   -0.060331
 C         -6.986357    0.387764   -0.023802
 C         -6.661021   -0.996477    0.102413
 S         -8.118500   -1.982815    0.195789
 H         -8.841892    1.582621   -0.178987
 C         -5.952687    1.354863   -0.149727
 C         -2.157521    0.417564   -0.095635
 C         -2.910537   -0.734765    0.010547
 C         -4.318673   -0.521126   -0.026147
 C         -4.645790    0.864998   -0.153158
 S         -3.189633    1.854532   -0.248318
 H         -2.465290   -1.714865    0.130788
 C         -5.352870   -1.488174    0.099065
 C         -6.226017    2.796616   -0.273417
 C         -5.787836    3.665357   -1.243332
 C         -6.200327    5.014505   -1.033326
 C         -6.950278    5.194705    0.098636
 S         -7.159177    3.673174    0.935434
 H         -5.202801    3.342405   -2.097735
 H         -5.952379    5.828754   -1.706814
 C         -5.081521   -2.929563    0.221843
 C         -5.534252   -3.801383    1.182755
 C         -5.121056   -5.150258    0.973892
 C         -4.356023   -5.327813   -0.148451
 S         -4.132937   -3.804003   -0.977052
 H         -6.129515   -3.480563    2.030850
 H         -5.379226   -5.966293    1.641337
 C         -3.753025   -6.595637   -0.676105
 H         -2.659681   -6.534941   -0.735658
 H         -4.008740   -7.428119   -0.013532
 H         -4.122785   -6.837719   -1.679695
 C         -7.548120    6.463344    0.630253
 H         -7.302211    7.294102   -0.038178
 H         -8.640515    6.401441    0.704199
 H         -7.165650    6.709059    1.628179
 C        -10.578318   -0.684713    0.043127
 C        -11.335296   -1.847006    0.085948
 S        -11.622682    0.719922   -0.015986
 C        -12.722093   -1.626301    0.068656
 H        -10.892485   -2.836422    0.124185
 C        -13.075063   -0.280305    0.011650
 H        -13.469829   -2.412541    0.094754
 C        -14.422934    0.209613   -0.017006
 C        -15.596800   -0.550633    0.012538
 N        -14.814131    1.546431   -0.078896
 C        -16.076928   -1.910736    0.073283
 C        -16.719488    0.318374   -0.030626
 C        -16.239886    1.679323   -0.090372
 C        -13.979913    2.735288   -0.132399
 N        -17.503994   -1.776455    0.063295
 O        -15.514614   -3.005584    0.124308
 C        -17.892660   -0.441069    0.001000
 O        -16.803520    2.773358   -0.142258
 H        -14.663451    3.584737   -0.176217
 H        -13.347542    2.741253   -1.025379
 H        -13.355467    2.827490    0.761469
 C        -18.339171   -2.964690    0.114481
 C        -19.245816    0.049527   -0.025137
 H        -17.656840   -3.815279    0.153156
 H        -18.969411   -2.972816    1.008964
 H        -18.966606   -3.051640   -0.777753
 C        -19.598719    1.391770   -0.089120
 S        -20.699942   -0.949079    0.019003
 H        -18.851856    2.178439   -0.124393
 C        -20.997421    1.608109   -0.102268
 C        -21.719718    0.442979   -0.048798
 H        -21.453348    2.590656   -0.149618
 H        -22.794501    0.317648   -0.045184
 C         -0.737427    0.550078   -0.092919
 S          0.311131   -0.861104    0.014080
 C          0.031292    1.717373   -0.167809
 C          1.772892    0.144091   -0.039556
 C          1.403708    1.505977   -0.139344
 H         -0.415058    2.703634   -0.239066
 C          3.091443   -0.329678    0.007987
 H          2.149580    2.292218   -0.186011
 C          4.302877    0.451929   -0.035111
 N          3.517098   -1.654151    0.106620
 C          5.401988   -0.385870    0.035812
 C          4.775440    1.827403   -0.127986
 C          4.929100   -1.762529    0.128847
 C          2.698744   -2.854504    0.183875
 C          6.612223    0.394052   -0.006981
 N          6.188529    1.717901   -0.105511
 O          4.184792    2.906287   -0.210831
 O          5.521290   -2.839947    0.211498
 H          3.390010   -3.695593    0.250408
 H          2.062488   -2.843540    1.073529
 H          2.080041   -2.970158   -0.710702
 C          7.933473   -0.081397    0.041042
 C          7.007279    2.917972   -0.182663
 S          9.393524    0.924455   -0.011483
 C          8.302344   -1.440428    0.140117
 H          6.316087    3.759101   -0.249513
 H          7.643841    2.906692   -1.072100
 H          7.625750    3.033568    0.712091
 C         10.442628   -0.484334    0.095189
 C          9.677673   -1.650867    0.169061
 H          7.557683   -2.227785    0.186185
 C         11.866499   -0.348698    0.099070
 H         10.124825   -2.636742    0.239984
 C         12.615747    0.802138   -0.006857
 S         12.898259   -1.785287    0.253926
 C         14.028195    0.589578    0.031344
 H         12.169807    1.781872   -0.127789
 C         14.354263   -0.795128    0.158880
 C         15.060573    1.554605   -0.093296
 C         15.662799   -1.284874    0.156794
 C         16.372275    1.061914   -0.094746
 C         14.789849    2.995910   -0.217509
 C         16.695110   -0.321093    0.031240
 C         15.933294   -2.728073    0.281678
 S         17.836602    2.042864   -0.181040
 C         15.252528    3.869259   -1.172249
 S         13.827779    3.869196    0.971728
 C         18.119388   -0.535182    0.064128
 C         15.501572   -3.593688    1.256929
 S         16.854590   -3.608682   -0.932542
 C         18.834179    0.614221   -0.038580
 C         14.835787    5.217575   -0.967098
 H         15.858224    3.549635   -2.013285
 C         14.058500    5.393926    0.146999
 H         18.574812   -1.511616    0.171194
 C         15.909759   -4.944394    1.046479
 H         14.923583   -3.267708    2.115012
 C         16.649899   -5.128418   -0.091174
 H         19.911302    0.720923   -0.039587
 H         15.100526    6.034310   -1.631169
 C         13.448768    6.660924    0.668909
 H         15.665757   -5.756774    1.723734
 C         17.241552   -6.399227   -0.624666
 H         13.711372    7.494180    0.009970
 H         12.354827    6.599664    0.716098
 H         13.806939    6.902526    1.676842
 H         18.333535   -6.339595   -0.706648
 H         16.999020   -7.228284    0.047171
 H         16.851445   -6.646423   -1.619308
       138
S1: Total Energy = -8069.53298721
 C         -9.139522   -0.557046    0.049528
 C         -8.380540    0.599604   -0.055202
 C         -6.982938    0.389220   -0.019437
 C         -6.648546   -1.000305    0.101286
 S         -8.105982   -1.991234    0.194064
 H         -8.827994    1.578795   -0.175005
 C         -5.945134    1.365249   -0.145198
 C         -2.150481    0.442378   -0.103279
 C         -2.910779   -0.717615    0.002575
 C         -4.306076   -0.509567   -0.036655
 C         -4.642149    0.880771   -0.158026
 S         -3.187608    1.875235   -0.253094
 H         -2.461114   -1.695189    0.127166
 C         -5.345182   -1.486640    0.088013
 C         -6.226464    2.804411   -0.260162
 C         -5.776755    3.685122   -1.214748
 C         -6.197786    5.030144   -0.998406
 C         -6.966583    5.196317    0.123193
 S         -7.183710    3.666366    0.941911
 H         -5.178727    3.372805   -2.064063
 H         -5.943177    5.851669   -1.660432
 C         -5.064577   -2.924725    0.200877
 C         -5.537625   -3.812649    1.138271
 C         -5.110810   -5.155574    0.923876
 C         -4.314252   -5.314430   -0.179594
 S         -4.076919   -3.779512   -0.982618
 H         -6.155588   -3.506337    1.975312
 H         -5.381445   -5.981373    1.574089
 C         -3.689948   -6.572039   -0.706470
 H         -2.595936   -6.503270   -0.738598
 H         -3.956129   -7.413763   -0.059939
 H         -4.033445   -6.804769   -1.721542
 C         -7.578485    6.457292    0.656812
 H         -7.326937    7.295081   -0.000638
 H         -8.671492    6.389143    0.714098
 H         -7.212029    6.696006    1.662418
 C        -10.556196   -0.686075    0.051028
 C        -11.326935   -1.851346    0.123557
 S        -11.603293    0.724044   -0.044463
 C        -12.702183   -1.630039    0.101722
 H        -10.885119   -2.839966    0.188235
 C        -13.060692   -0.275636    0.010685
 H        -13.452746   -2.412720    0.148455
 C        -14.396587    0.205817   -0.027466
 C        -15.579791   -0.559131    0.022950
 N        -14.799500    1.540325   -0.121308
 C        -16.057508   -1.918683    0.118400
 C        -16.697919    0.302715   -0.039068
 C        -16.220698    1.665922   -0.133055
 C        -13.970204    2.730826   -0.205216
 N        -17.483983   -1.788401    0.107877
 O        -15.492383   -3.012204    0.195674
 C        -17.878421   -0.457571    0.013698
 O        -16.792680    2.754718   -0.210313
 H        -14.656503    3.576739   -0.268866
 H        -13.338850    2.716887   -1.098831
 H        -13.344630    2.846771    0.685086
 C        -18.315387   -2.977395    0.189596
 C        -19.226656    0.031236   -0.021651
 H        -17.630659   -3.824968    0.247103
 H        -18.943919   -2.965421    1.085319
 H        -18.944881   -3.087011   -0.698738
 C        -19.584267    1.373347   -0.117579
 S        -20.681960   -0.968518    0.049671
 H        -18.838673    2.159935   -0.173331
 C        -20.981983    1.585784   -0.133032
 C        -21.704116    0.421152   -0.049922
 H        -21.439769    2.566231   -0.203217
 H        -22.778754    0.295132   -0.041143
 C         -0.739200    0.569892   -0.100161
 S          0.310170   -0.839982    0.006812
 C          0.033348    1.739818   -0.175203
 C          1.768285    0.164157   -0.046055
 C          1.403778    1.523057   -0.145796
 H         -0.411656    2.726442   -0.246709
 C          3.097090   -0.309569    0.002308
 H          2.153097    2.306968   -0.191907
 C          4.287462    0.464868   -0.039950
 N          3.510619   -1.638688    0.101544
 C          5.401141   -0.384158    0.032825
 C          4.758232    1.832117   -0.132104
 C          4.930077   -1.753532    0.125221
 C          2.688328   -2.835387    0.177610
 C          6.590302    0.387238   -0.008801
 N          6.180626    1.714872   -0.107875
 O          4.181166    2.917640   -0.215932
 O          5.511319   -2.836002    0.208531
 H          3.378442   -3.677705    0.244516
 H          2.051168   -2.825573    1.066934
 H          2.070054   -2.951741   -0.717478
 C          7.923351   -0.091519    0.040810
 C          7.003465    2.911017   -0.183989
 S          9.378514    0.913717   -0.010604
 C          8.287558   -1.444669    0.140075
 H          6.313278    3.753346   -0.250634
 H          7.640493    2.901179   -1.073500
 H          7.622021    3.027184    0.711004
 C         10.427758   -0.489778    0.097159
 C          9.665239   -1.657093    0.170710
 H          7.541499   -2.231507    0.185505
 C         11.851008   -0.354968    0.102843
 H         10.112261   -2.642873    0.242361
 C         12.601793    0.797436   -0.003314
 S         12.882572   -1.790270    0.259426
 C         14.010574    0.586417    0.037732
 H         12.154623    1.776120   -0.128002
 C         14.338002   -0.799816    0.164593
 C         15.044747    1.553974   -0.086676
 C         15.645264   -1.289126    0.160272
 C         16.355577    1.059952   -0.090200
 C         14.774203    2.993735   -0.208278
 C         16.678145   -0.323841    0.034466
 C         15.916610   -2.731895    0.283838
 S         17.821548    2.039832   -0.172159
 C         15.261703    3.874594   -1.144869
 S         13.779261    3.859319    0.960350
 C         18.100638   -0.538706    0.068757
 C         15.482000   -3.599034    1.256693
 S         16.842176   -3.610386   -0.928667
 C         18.816990    0.611138   -0.031473
 C         14.838471    5.220465   -0.942296
 H         15.887972    3.561142   -1.972959
 C         14.031447    5.389024    0.152172
 H         18.555605   -1.515331    0.175578
 C         15.891331   -4.949121    1.045648
 H         14.901746   -3.274470    2.113782
 C         16.635096   -5.131243   -0.090032
 H         19.894246    0.716530   -0.031145
 H         15.119695    6.041616   -1.593949
 C         13.407884    6.652289    0.666297
 H         15.645605   -5.762509    1.721016
 C         17.228506   -6.401096   -0.623737
 H         13.686851    7.489890    0.019795
 H         12.313167    6.590030    0.685057
 H         13.740011    6.887194    1.684658
 H         18.320649   -6.340886   -0.702809
 H         16.984474   -7.231137    0.046298
 H         16.840996   -6.646885   -1.619721
