       129
S0: Total Energy = -3614.02234376
 C         -1.453771   -0.169005   -0.174817
 C         -0.721958   -0.097349   -1.412874
 N         -1.245170   -0.181628   -2.639367
 S         -0.000120    0.000012   -3.696829
 N          1.244993    0.181630   -2.639439
 C          0.721857    0.097359   -1.412909
 C          1.453707    0.169033   -0.174870
 C          0.706176    0.071625    0.982930
 C         -0.706213   -0.071539    0.982961
 H          1.216265    0.128407    1.939169
 H         -1.216254   -0.128283    1.939225
 N          2.851561    0.365405   -0.163785
 N         -2.851618   -0.365410   -0.163765
 C          3.696502   -0.503716   -0.909462
 C          3.384411   -1.862594   -1.058211
 C          4.865509   -0.014979   -1.510602
 C          4.208217   -2.703564   -1.800627
 H          2.488526   -2.260627   -0.591056
 C          5.692407   -0.867110   -2.234226
 H          5.124850    1.033755   -1.405659
 C          5.384498   -2.229525   -2.406470
 H          3.937822   -3.748285   -1.904524
 H          6.601527   -0.466987   -2.674714
 C          6.261295   -3.091299   -3.241496
 C          6.640580   -4.402604   -2.870861
 C          6.774303   -2.602968   -4.454506
 C          7.486035   -5.171532   -3.682919
 C          7.614175   -3.347749   -5.273210
 H          6.482807   -1.605775   -4.771795
 C          7.972430   -4.642695   -4.884896
 H          7.766272   -6.168954   -3.375818
 H          7.989072   -2.951621   -6.211134
 C          3.417148    1.274438    0.776096
 C          4.526986    0.919446    1.555575
 C          2.871426    2.558664    0.934086
 C          5.074718    1.829713    2.456230
 H          4.967752   -0.066276    1.447129
 C          3.414477    3.454017    1.848278
 H          2.014028    2.850545    0.335271
 C          4.532740    3.114517    2.632793
 H          5.947523    1.535681    3.032736
 H          2.970568    4.437778    1.949707
 C          5.108808    4.034715    3.647373
 C          5.482169    3.543649    4.909244
 C          5.331186    5.410814    3.406658
 C          6.042453    4.346029    5.895268
 H          5.305430    2.493931    5.126017
 C          5.893937    6.238381    4.388424
 C          6.249109    5.704403    5.633362
 H          6.313521    3.945295    6.866337
 H          6.059133    7.285789    4.179823
 C         -3.696554    0.503749   -0.909406
 C         -3.384437    1.862627   -1.058118
 C         -4.865557    0.015043   -1.510565
 C         -4.208240    2.703635   -1.800485
 H         -2.488530    2.260619   -0.590970
 C         -5.692460    0.867219   -2.234146
 H         -5.124919   -1.033689   -1.405667
 C         -5.384544    2.229633   -2.406333
 H         -3.937840    3.748356   -1.904347
 H         -6.601580    0.467110   -2.674642
 C         -6.261330    3.091458   -3.241319
 C         -6.640573    4.402766   -2.870652
 C         -6.774343    2.603178   -4.454351
 C         -7.485968    5.171761   -3.682713
 C         -7.614166    3.348015   -5.273050
 H         -6.482886    1.605980   -4.771659
 C         -7.972363    4.642972   -4.884712
 H         -7.766167    6.169188   -3.375595
 H         -7.989084    2.951929   -6.210982
 C         -3.417206   -1.274466    0.776108
 C         -2.871460   -2.558680    0.934075
 C         -4.527085   -0.919532    1.555572
 C         -3.414501   -3.454070    1.848242
 H         -2.014045   -2.850542    0.335275
 C         -5.074801   -1.829832    2.456195
 H         -4.967878    0.066179    1.447138
 C         -4.532777   -3.114624    2.632741
 H         -2.970568   -4.437827    1.949645
 H         -5.947615   -1.535846    3.032711
 C         -5.108823   -4.034879    3.647277
 C         -5.331239   -5.410943    3.406445
 C         -5.482116   -3.543912    4.909208
 C         -5.893957   -6.238588    4.388165
 C         -6.042357   -4.346374    5.895188
 H         -5.305349   -2.494214    5.126056
 C         -6.249028   -5.704728    5.633180
 H         -6.059189   -7.285971    4.179465
 H         -6.313357   -3.945729    6.866314
 O          8.795923   -5.319475   -5.738257
 O          6.156536   -4.864088   -1.678884
 O          6.797945    6.434257    6.647899
 O          4.987821    5.875979    2.168829
 O         -8.795776    5.319837   -5.738080
 O         -6.156577    4.864183   -1.678632
 O         -6.797839   -6.434660    6.647682
 O         -4.987956   -5.875985    2.168545
 C          9.191229   -6.641537   -5.397417
 H          8.326314   -7.312207   -5.315692
 H          9.833935   -6.980439   -6.211643
 H          9.756720   -6.663210   -4.457028
 C          6.544465   -6.154247   -1.227496
 H          6.210747   -6.941098   -1.915928
 H          7.631534   -6.224569   -1.095377
 H          6.054474   -6.289468   -0.261826
 C          5.243162    7.235790    1.844475
 H          4.678491    7.918922    2.491658
 H          6.312657    7.471216    1.912710
 H          4.911230    7.360870    0.812515
 C          7.028629    7.821677    6.441218
 H          6.093699    8.359090    6.237459
 H          7.462938    8.193863    7.370551
 H          7.733126    7.994652    5.617655
 C         -7.027964   -7.822195    6.441122
 H         -6.092874   -8.359179    6.237009
 H         -7.461740   -8.194555    7.370633
 H         -7.732711   -7.995517    5.617836
 C         -5.243310   -7.235768    1.844085
 H         -4.678598   -7.918955    2.491175
 H         -6.312799   -7.471210    1.912361
 H         -4.911436   -7.360755    0.812095
 C         -6.544129    6.154522   -1.227436
 H         -6.210290    6.941160   -1.916050
 H         -7.631166    6.225146   -1.095206
 H         -6.054002    6.289794   -0.261841
 C         -9.191414    6.641713   -5.396915
 H         -8.326669    7.312619   -5.315224
 H         -9.834343    6.980601   -6.210973
 H         -9.756730    6.663047   -4.456416
       129
T1: Total Energy = -3613.97754526
 C          1.431191    0.146855   -0.188587
 C          0.723217    0.074130   -1.430947
 N          1.279463    0.137638   -2.647950
 S          0.000028   -0.000078   -3.751088
 N         -1.279422   -0.137748   -2.647962
 C         -0.723194   -0.074187   -1.430954
 C         -1.431185   -0.146862   -0.188600
 C         -0.682454   -0.078059    1.025544
 C          0.682444    0.078100    1.025550
 H         -1.215794   -0.131760    1.967776
 H          1.215772    0.131838    1.967787
 N         -2.821887   -0.298724   -0.132328
 N          2.821893    0.298718   -0.132304
 C         -3.684161    0.447791   -0.982555
 C         -3.411031    1.793368   -1.268328
 C         -4.834344   -0.141759   -1.525444
 C         -4.266618    2.528679   -2.078327
 H         -2.524198    2.258279   -0.849627
 C         -5.687754    0.604606   -2.329635
 H         -5.054489   -1.183974   -1.318623
 C         -5.427792    1.954875   -2.629561
 H         -4.034825    3.566859   -2.285296
 H         -6.581362    0.132516   -2.727789
 C         -6.337163    2.703879   -3.532648
 C         -6.754765    4.032441   -3.282822
 C         -6.841406    2.086515   -4.689706
 C         -7.626661    4.695628   -4.157328
 C         -7.705758    2.726096   -5.568521
 H         -6.519695    1.073805   -4.914782
 C         -8.100712    4.041395   -5.301208
 H         -7.936604    5.708511   -3.943562
 H         -8.071798    2.233349   -6.463025
 C         -3.389998   -1.144394    0.860196
 C         -4.512280   -0.739278    1.599364
 C         -2.829155   -2.406199    1.118305
 C         -5.049797   -1.578009    2.568848
 H         -4.958871    0.231552    1.411698
 C         -3.370762   -3.233490    2.094910
 H         -1.970147   -2.734105    0.541939
 C         -4.493203   -2.841057    2.848494
 H         -5.927019   -1.249149    3.118455
 H         -2.920470   -4.202756    2.273192
 C         -5.062141   -3.678552    3.933941
 C         -5.463814   -3.082006    5.141378
 C         -5.247059   -5.076984    3.819348
 C         -6.014506   -3.803812    6.191752
 H         -5.314625   -2.013013    5.263251
 C         -5.802343   -5.823416    4.867782
 C         -6.185035   -5.185965    6.054461
 H         -6.305912   -3.322608    7.119331
 H         -5.939593   -6.889294    4.755186
 C          3.684177   -0.447832   -0.982492
 C          3.411043   -1.793418   -1.268221
 C          4.834371    0.141693   -1.525384
 C          4.266644   -2.528764   -2.078174
 H          2.524200   -2.258308   -0.849519
 C          5.687793   -0.604708   -2.329529
 H          5.054517    1.183914   -1.318599
 C          5.427832   -1.954987   -2.629406
 H          4.034849   -3.566952   -2.285107
 H          6.581411   -0.132637   -2.727684
 C          6.337221   -2.704032   -3.532442
 C          6.754810   -4.032585   -3.282550
 C          6.841493   -2.086719   -4.689514
 C          7.626726   -4.695812   -4.157007
 C          7.705864   -2.726340   -5.568281
 H          6.519791   -1.074017   -4.914641
 C          8.100808   -4.041629   -5.300904
 H          7.936660   -5.708687   -3.943191
 H          8.071927   -2.233632   -6.462797
 C          3.389990    1.144430    0.860191
 C          2.829136    2.406243    1.118244
 C          4.512266    0.739350    1.599388
 C          3.370727    3.233575    2.094821
 H          1.970132    2.734120    0.541855
 C          5.049767    1.578123    2.568844
 H          4.958865   -0.231485    1.411767
 C          4.493163    2.841179    2.848433
 H          2.920427    4.202846    2.273060
 H          5.926985    1.249291    3.118475
 C          5.062083    3.678722    3.933853
 C          5.246994    5.077150    3.819206
 C          5.463748    3.082227    5.141318
 C          5.802262    5.823629    4.867616
 C          6.014424    3.804079    6.191669
 H          5.314565    2.013238    5.263233
 C          6.184945    5.186228    6.054324
 H          5.939507    6.889502    4.754978
 H          6.305822    3.322915    7.119271
 O         -8.946727    4.609196   -6.208664
 O         -6.282973    4.615331   -2.140933
 O         -6.727627   -5.831648    7.125917
 O         -4.877875   -5.645772    2.634700
 O          8.946842   -4.609471   -6.208315
 O          6.282989   -4.615426   -2.140648
 O          6.727523    5.831958    7.125759
 O          4.877820    5.645889    2.634530
 C         -9.377178    5.947294   -5.995315
 H         -8.530534    6.645430   -5.984626
 H        -10.031816    6.187563   -6.834632
 H         -9.939700    6.044463   -5.058000
 C         -6.700299    5.933604   -1.812665
 H         -6.387527    6.658032   -2.575216
 H         -7.788280    5.990210   -1.681680
 H         -6.210293    6.171875   -0.867190
 C         -5.094115   -7.036894    2.435011
 H         -4.521464   -7.640962    3.149915
 H         -6.158204   -7.292567    2.512030
 H         -4.744122   -7.247536    1.423288
 C         -6.924375   -7.237994    7.047457
 H         -5.974968   -7.769406    6.904619
 H         -7.361626   -7.531596    8.003066
 H         -7.614665   -7.502546    6.236548
 C          6.924245    7.238305    7.047252
 H          5.974831    7.769693    6.904377
 H          7.361474    7.531950    8.002857
 H          7.614545    7.502840    6.236344
 C          5.094044    7.037006    2.434791
 H          4.521379    7.641093    3.149668
 H          6.158130    7.292695    2.511811
 H          4.744058    7.247606    1.423057
 C          6.700285   -5.933695   -1.812326
 H          6.387525   -6.658141   -2.574865
 H          7.788261   -5.990314   -1.681305
 H          6.210245   -6.171928   -0.866859
 C          9.377302   -5.947554   -5.994886
 H          8.530666   -6.645700   -5.984189
 H         10.031969   -6.187857   -6.834172
 H          9.939797   -6.044669   -5.057549
       129
S1: Total Energy = -3613.96273913
 C          1.416015    0.099329    0.020154
 C          0.719530    0.054268   -1.222628
 N          1.292788    0.091473   -2.445630
 S         -0.000009   -0.000194   -3.535128
 N         -1.292807   -0.091748   -2.445620
 C         -0.719545   -0.054421   -1.222623
 C         -1.416029   -0.099348    0.020160
 C         -0.698256   -0.048448    1.218171
 C          0.698235    0.048553    1.218168
 H         -1.236499   -0.083552    2.159723
 H          1.236475    0.083757    2.159718
 N         -2.838845   -0.213894    0.048271
 N          2.838825    0.213893    0.048261
 C         -3.628132    0.725348   -0.639656
 C         -3.193963    2.057705   -0.777073
 C         -4.857965    0.359203   -1.220752
 C         -3.968741    2.989611   -1.450432
 H         -2.244644    2.353934   -0.344147
 C         -5.622782    1.299735   -1.893603
 H         -5.200855   -0.667328   -1.152978
 C         -5.206171    2.640366   -2.028803
 H         -3.609123    4.007814   -1.536273
 H         -6.572236    0.991004   -2.321269
 C         -6.029810    3.598956   -2.799127
 C         -6.227790    4.946631   -2.407479
 C         -6.676911    3.180554   -3.976608
 C         -7.025451    5.813560   -3.166143
 C         -7.469128    4.024124   -4.741432
 H         -6.523179    2.159998   -4.314068
 C         -7.644802    5.352366   -4.334304
 H         -7.166346    6.835327   -2.844292
 H         -7.944266    3.682130   -5.654737
 C         -3.421946   -1.256230    0.799726
 C         -4.607733   -1.055127    1.531703
 C         -2.808138   -2.522516    0.855309
 C         -5.156558   -2.089849    2.277049
 H         -5.090193   -0.083690    1.518194
 C         -3.367131   -3.548522    1.603679
 H         -1.894901   -2.694122    0.296172
 C         -4.556408   -3.363536    2.337539
 H         -6.078939   -1.908946    2.821398
 H         -2.875729   -4.513894    1.620093
 C         -5.148906   -4.423689    3.186175
 C         -5.686025   -4.097774    4.444614
 C         -5.229805   -5.781738    2.790416
 C         -6.267646   -5.038567    5.282477
 H         -5.618595   -3.067992    4.782999
 C         -5.814641   -6.746396    3.621969
 C         -6.332850   -6.374462    4.868603
 H         -6.662978   -4.764698    6.254884
 H         -5.870496   -7.774958    3.295499
 C          3.628136   -0.725375   -0.639611
 C          3.194001   -2.057750   -0.776948
 C          4.857958   -0.359234   -1.220731
 C          3.968799   -2.989675   -1.450261
 H          2.244692   -2.353978   -0.344000
 C          5.622796   -1.299786   -1.893532
 H          5.200825    0.667309   -1.153013
 C          5.206215   -2.640432   -2.028658
 H          3.609204   -4.007892   -1.536043
 H          6.572242   -0.991056   -2.321218
 C          6.029870   -3.599044   -2.798941
 C          6.227896   -4.946689   -2.407216
 C          6.676937   -3.180694   -3.976458
 C          7.025567   -5.813641   -3.165843
 C          7.469166   -4.024287   -4.741245
 H          6.523170   -2.160162   -4.313975
 C          7.644885   -5.352499   -4.334042
 H          7.166497   -6.835385   -2.843933
 H          7.944279   -3.682334   -5.654579
 C          3.421913    1.256265    0.799685
 C          2.808132    2.522567    0.855157
 C          4.607655    1.055179    1.531736
 C          3.367108    3.548606    1.603498
 H          1.894930    2.694161    0.295960
 C          5.156464    2.089934    2.277051
 H          5.090095    0.083731    1.518308
 C          4.556339    3.363636    2.337434
 H          2.875726    4.513991    1.619829
 H          6.078811    1.909044    2.821463
 C          5.148806    4.423825    3.186049
 C          5.229793    5.781843    2.790202
 C          5.685802    4.097977    4.444557
 C          5.814588    6.746538    3.621742
 C          6.267383    5.038806    5.282407
 H          5.618305    3.068219    4.783005
 C          6.332671    6.374671    4.868448
 H          5.870508    7.775076    3.295205
 H          6.662619    4.764990    6.254868
 O         -8.431482    6.124329   -5.135458
 O         -5.626239    5.339156   -1.247372
 O         -6.914022   -7.243514    5.742743
 O         -4.734250   -6.087387    1.556892
 O          8.431572   -6.124490   -5.135164
 O          5.626373   -5.339161   -1.247075
 O          6.913794    7.243763    5.742582
 O          4.734363    6.087423    1.556610
 C         -8.640730    7.485933   -4.780995
 H         -7.696385    8.044027   -4.756400
 H         -9.284876    7.900386   -5.558010
 H         -9.141702    7.575414   -3.808849
 C         -5.826131    6.665286   -0.774951
 H         -5.441217    7.408505   -1.484300
 H         -6.886667    6.864923   -0.577301
 H         -5.265454    6.733375    0.158571
 C         -4.844144   -7.420278    1.073341
 H         -4.289002   -8.125254    1.704699
 H         -5.892331   -7.736999    1.007012
 H         -4.405960   -7.408303    0.074297
 C         -7.010281   -8.615760    5.380409
 H         -6.019314   -9.060640    5.225483
 H         -7.501145   -9.111552    6.219280
 H         -7.615374   -8.750522    4.475046
 C          7.010132    8.615980    5.380162
 H          6.019195    9.060885    5.225119
 H          7.500940    9.111813    6.219042
 H          7.615310    8.750660    4.474844
 C          4.844372    7.420271    1.072968
 H          4.289204    8.125325    1.704217
 H          5.892581    7.736934    1.006718
 H          4.406286    7.408242    0.073881
 C          5.826311   -6.665255   -0.774575
 H          5.441406   -7.408530   -1.483871
 H          6.886857   -6.864850   -0.576932
 H          5.265653   -6.733303    0.158962
 C          8.640864   -7.486066   -4.780623
 H          7.696534   -8.044183   -4.755978
 H          9.285007   -7.900549   -5.557624
 H          9.141854   -7.575475   -3.808480
