       113
S0: Total Energy = -2856.54973399
 C         -3.497097    2.540759   -0.064703
 C         -2.530661    3.504124   -0.045964
 C         -1.254246    2.826078   -0.025047
 N         -1.466781    1.465409   -0.034049
 C         -2.820417    1.265859   -0.056141
 C         -2.531995   -3.502973   -0.054695
 C         -3.498046   -2.539190   -0.071504
 C         -2.820907   -1.264579   -0.057620
 N         -1.467384   -1.464725   -0.034043
 C         -1.255357   -2.825494   -0.029777
 C         -3.471298    0.000775   -0.065234
 C          3.497097   -2.540785    0.064667
 C          2.530665   -3.504150    0.045855
 C          1.254248   -2.826106    0.024832
 N          1.466783   -1.465434    0.033892
 C          2.820414   -1.265883    0.056115
 C         -0.000682   -3.466156   -0.003614
 C          2.532000    3.502950    0.054491
 C          3.498048    2.539168    0.071340
 C          2.820905    1.264555    0.057556
 N          1.467385    1.464701    0.033896
 C          1.255359    2.825473    0.029517
 C          0.000692    3.466133    0.003321
 C          3.471290   -0.000800    0.065285
Zn          0.000002   -0.000013   -0.000066
 H         -4.569892    2.672156   -0.082157
 H         -2.666088    4.576570   -0.045262
 H         -2.667825   -4.575361   -0.058279
 H         -4.570841   -2.670147   -0.091908
 H          4.569891   -2.672183    0.082187
 H          2.666094   -4.576595    0.045144
 H          2.667833    4.575338    0.058032
 H          4.570843    2.670125    0.091758
 C         -4.892376    0.000944   -0.074270
 C         -6.113072    0.000868   -0.071876
 C          4.892372   -0.000969    0.074530
 C          6.113065   -0.000885    0.072380
 C          7.532528   -0.000144    0.062925
 C          8.266785    1.203326   -0.005131
 C          8.269266   -1.203066    0.110734
 C          9.653021    1.209366   -0.023220
 H          7.731851    2.147663   -0.049635
 C          9.655526   -1.207902    0.093427
 H          7.736318   -2.148399    0.157948
 C         10.393884    0.001398    0.032834
 H         10.164872    2.162217   -0.083178
 H         10.169447   -2.160992    0.125439
 C         -7.532525    0.000170   -0.062102
 C         -8.266802   -1.203306    0.005861
 C         -8.269234    1.203133   -0.109614
 C         -9.653025   -1.209326    0.024259
 H         -7.731870   -2.147665    0.049944
 C         -9.655481    1.208031   -0.091995
 H         -7.736254    2.148442   -0.156952
 C        -10.393842   -0.001278   -0.031173
 H        -10.164951   -2.162158    0.083963
 H        -10.169440    2.161108   -0.123989
 C         -0.001005   -4.967062   -0.007592
 C         -0.019597   -5.688727    1.201141
 C          0.017174   -5.681700   -1.220526
 C         -0.020051   -7.091660    1.202578
 C          0.017070   -7.084580   -1.230199
 C         -0.001614   -7.768389   -0.015795
 H         -0.034449   -7.649873    2.130578
 H          0.031197   -7.637319   -2.161472
 H         -0.001831   -8.855174   -0.018961
 C          0.001009    4.967039    0.007234
 C         -0.017047    5.681736    1.220135
 C          0.019461    5.688645   -1.201536
 C         -0.016949    7.084616    1.229738
 C          0.019901    7.091579   -1.203043
 C          0.001596    7.768367    0.015298
 H         -0.030979    7.637402    2.160985
 H          0.034187    7.649745   -2.131073
 H          0.001803    8.855151    0.018413
 O         -0.036854   -4.929376    2.334025
 O          0.034532   -4.915721   -2.348904
 O         -0.034281    4.915814    2.348552
 O          0.036588    4.929240   -2.334386
 C         -0.055522   -5.587979    3.593356
 H         -0.066287   -4.794757    4.342471
 H         -0.952466   -6.209433    3.709426
 H          0.837295   -6.209916    3.735650
 C          0.052783   -5.566873   -3.612124
 H         -0.840257   -6.187668   -3.757944
 H          0.063673   -4.769230   -4.356530
 H          0.949516   -6.187902   -3.732015
 C         -0.052391    5.567029    3.611741
 H         -0.949113    6.188059    3.731704
 H         -0.063190    4.769424    4.356189
 H          0.840663    6.187837    3.757427
 C          0.055089    5.587786   -3.593749
 H          0.952010    6.209245   -3.709961
 H          0.065767    4.794530   -4.342830
 H         -0.837753    6.209707   -3.735959
 N         11.774706    0.002887    0.033543
 N        -11.774523   -0.002680   -0.030902
 C         12.500147   -1.255411   -0.048763
 H         12.281703   -1.806254   -0.976151
 H         13.571652   -1.052645   -0.017025
 H         12.259292   -1.908935    0.798876
 C         12.497466    1.248872   -0.170179
 H         12.256113    1.980414    0.610986
 H         13.569413    1.052158   -0.120458
 H         12.276988    1.707512   -1.145993
 C        -12.497557   -1.249117    0.168719
 H        -12.276149   -1.711307    1.142600
 H        -13.569481   -1.051832    0.121083
 H        -12.257320   -1.978041   -0.615321
 C        -12.500145    1.255684    0.047959
 H        -12.260658    1.906647   -0.802121
 H        -13.571647    1.052615    0.018632
 H        -12.280436    1.809509    0.973219
       113
T1: Total Energy = -2856.50504651
 C         -3.497232   -2.551846    0.102511
 C         -2.523662   -3.519120    0.076511
 C         -1.259244   -2.845037    0.040642
 N         -1.476836   -1.472544    0.048232
 C         -2.822128   -1.284535    0.082688
 C         -2.524998    3.518010    0.077582
 C         -3.498206    2.550353    0.102835
 C         -2.822635    1.283316    0.081783
 N         -1.477424    1.471865    0.046950
 C         -1.260338    2.844443    0.040788
 C         -3.483226   -0.000741    0.091793
 C          3.497228    2.551810   -0.102706
 C          2.523657    3.519084   -0.076753
 C          1.259241    2.845002   -0.040787
 N          1.476836    1.472507   -0.048281
 C          2.822127    1.284499   -0.082759
 C         -0.000668    3.473549    0.000499
 C          2.525003   -3.518047   -0.077444
 C          3.498213   -2.550390   -0.102648
 C          2.822638   -1.283353   -0.081690
 N          1.477425   -1.471901   -0.046949
 C          1.260339   -2.844480   -0.040775
 C          0.000667   -3.473585   -0.000595
 C          3.483229    0.000705   -0.091737
Zn          0.000000   -0.000018   -0.000014
 H         -4.569321   -2.686081    0.131862
 H         -2.660442   -4.591533    0.080685
 H         -2.662181    4.590366    0.082945
 H         -4.570323    2.684186    0.132972
 H          4.569316    2.686044   -0.132096
 H          2.660434    4.591497   -0.081014
 H          2.662187   -4.590403   -0.082765
 H          4.570332   -2.684224   -0.132701
 C         -4.881291   -0.000958    0.098026
 C         -6.110540   -0.001043    0.090452
 C          4.881293    0.000925   -0.097898
 C          6.110542    0.001019   -0.090233
 C          7.518830    0.000845   -0.068321
 C          8.257639   -1.207309   -0.034479
 C          8.258708    1.208805   -0.070001
 C          9.640670   -1.211934   -0.002156
 H          7.722274   -2.152193   -0.030816
 C          9.641768    1.213138   -0.038249
 H          7.724210    2.153880   -0.094203
 C         10.380824    0.000511   -0.003792
 H         10.155171   -2.164835    0.025992
 H         10.157109    2.166004   -0.037953
 C         -7.518832   -0.000830    0.068653
 C         -8.257619    1.207350    0.035327
 C         -8.258732   -1.208773    0.069870
 C         -9.640653    1.212013    0.003096
 H         -7.722237    2.152225    0.031959
 C         -9.641795   -1.213065    0.038193
 H         -7.724252   -2.153870    0.093599
 C        -10.380835   -0.000413    0.004363
 H        -10.155128    2.164937   -0.024723
 H        -10.157146   -2.165925    0.037458
 C         -0.000957    4.975125    0.002527
 C         -0.035546    5.693060   -1.207172
 C          0.033310    5.689257    1.214510
 C         -0.036123    7.095915   -1.210117
 C          0.033443    7.092079    1.221936
 C         -0.001440    7.774316    0.006986
 H         -0.062835    7.652460   -2.138827
 H          0.059949    7.645653    2.152425
 H         -0.001610    8.861083    0.008706
 C          0.000955   -4.975161   -0.002672
 C         -0.033130   -5.689250   -1.214685
 C          0.035363   -5.693136    1.207008
 C         -0.033263   -7.092071   -1.222159
 C          0.035937   -7.095990    1.209905
 C          0.001435   -7.774350   -0.007227
 H         -0.059631   -7.645613   -2.152671
 H          0.062512   -7.652568    2.138599
 H          0.001605   -8.861116   -0.008984
 O         -0.067527    4.930972   -2.337482
 O          0.065395    4.923575    2.342370
 O         -0.065050   -4.923527   -2.342522
 O          0.067185   -4.931084    2.337348
 C         -0.103517    5.585998   -3.598190
 H         -0.123988    4.790636   -4.344773
 H         -1.002343    6.206605   -3.703722
 H          0.787080    6.207850   -3.754102
 C          0.101216    5.574539    3.605192
 H         -0.789520    6.195689    3.763094
 H          0.121838    4.776771    4.349202
 H          0.999909    6.194989    3.712747
 C         -0.100675   -5.574445   -3.605372
 H         -0.999348   -6.194897   -3.713087
 H         -0.121187   -4.776651   -4.349357
 H          0.790088   -6.195585   -3.763160
 C          0.102975   -5.586151    3.598040
 H          1.001778   -6.206771    3.703690
 H          0.123338   -4.790813    4.344652
 H         -0.787652   -6.207999    3.753795
 N         11.756724    0.000259    0.026066
 N        -11.756755   -0.000120   -0.025207
 C         12.487802    1.258111    0.061226
 H         12.246538    1.847696    0.956830
 H         13.558221    1.049783    0.070938
 H         12.271455    1.874887   -0.821015
 C         12.486299   -1.256437    0.106008
 H         12.275288   -1.901261   -0.757351
 H         13.556831   -1.048750    0.116489
 H         12.238397   -1.816582    1.018462
 C        -12.486261    1.256580   -0.105801
 H        -12.238783    1.816104   -1.018773
 H        -13.556816    1.048974   -0.115528
 H        -12.274757    1.901948    0.757006
 C        -12.487804   -1.257940   -0.062250
 H        -12.271144   -1.876073    0.818942
 H        -13.558233   -1.049625   -0.071212
 H        -12.246830   -1.846127   -0.958870
       113
S1: Total Energy = -2856.48134454
 C         -3.499521   -2.546457    0.093754
 C         -2.529272   -3.513009    0.069034
 C         -1.259626   -2.838700    0.036800
 N         -1.473267   -1.469386    0.045494
 C         -2.823023   -1.273741    0.077016
 C         -2.527679    3.514035    0.070979
 C         -3.498402    2.547927    0.093759
 C         -2.822513    1.274907    0.075064
 N         -1.472661    1.469976    0.043411
 C         -1.258347    2.839189    0.037627
 C         -3.477073    0.000733    0.085887
 C          3.499519    2.546524   -0.093681
 C          2.529271    3.513076   -0.068928
 C          1.259623    2.838768   -0.036743
 N          1.473265    1.469453   -0.045457
 C          2.823021    1.273808   -0.076960
 C          0.000775    3.473478    0.001517
 C          2.527679   -3.513968   -0.070841
 C          3.498401   -2.547860   -0.093658
 C          2.822511   -1.274840   -0.074994
 N          1.472658   -1.469909   -0.043367
 C          1.258345   -2.839122   -0.037559
 C         -0.000777   -3.473411   -0.001444
 C          3.477070   -0.000666   -0.085825
Zn         -0.000001    0.000033    0.000008
 H         -4.572028   -2.678954    0.120419
 H         -2.666141   -4.585378    0.071748
 H         -2.664037    4.586461    0.075880
 H         -4.570811    2.680994    0.121443
 H          4.572026    2.679021   -0.120337
 H          2.666141    4.585446   -0.071609
 H          2.664038   -4.586394   -0.075696
 H          4.570810   -2.680927   -0.121328
 C         -4.884574    0.000991    0.092869
 C         -6.111595    0.000952    0.085488
 C          4.884572   -0.000922   -0.092799
 C          6.111593   -0.000894   -0.085443
 C          7.519983   -0.001123   -0.063570
 C          8.259291   -1.209331   -0.008652
 C          8.261108    1.206966   -0.087551
 C          9.641957   -1.213871    0.023719
 H          7.723380   -2.153684    0.011185
 C          9.643805    1.211496   -0.055987
 H          7.726668    2.151411   -0.130012
 C         10.382453   -0.001159    0.001997
 H         10.156490   -2.166208    0.067282
 H         10.159793    2.163868   -0.074546
 C         -7.519986    0.001101    0.063599
 C         -8.259359    1.209267    0.008638
 C         -8.261043   -1.207029    0.087547
 C         -9.642025    1.213728   -0.023778
 H         -7.723500    2.153649   -0.011230
 C         -9.643739   -1.211637    0.055938
 H         -7.726551   -2.151445    0.129986
 C        -10.382456    0.000977   -0.002015
 H        -10.156606    2.166034   -0.067427
 H        -10.159670   -2.164041    0.074419
 C          0.001106    4.974120    0.005656
 C         -0.031588    5.695795   -1.202433
 C          0.034045    5.688061    1.218383
 C         -0.031514    7.098788   -1.203425
 C          0.034854    7.090985    1.228434
 C          0.001905    7.775380    0.014683
 H         -0.056730    7.657018   -2.131209
 H          0.060350    7.643174    2.159818
 H          0.002252    8.862192    0.018165
 C         -0.001108   -4.974053   -0.005545
 C         -0.034034   -5.688025   -1.218254
 C          0.031576   -5.695697    1.202564
 C         -0.034841   -7.090950   -1.228268
 C          0.031503   -7.098690    1.203592
 C         -0.001903   -7.775314   -0.014500
 H         -0.060327   -7.643163   -2.159638
 H          0.056711   -7.656896    2.131390
 H         -0.002248   -8.862125   -0.017954
 O         -0.062525    4.936763   -2.335247
 O          0.064213    4.921729    2.346253
 O         -0.064192   -4.921723   -2.346144
 O          0.062501   -4.936635    2.335358
 C         -0.096682    5.595443   -3.593770
 H         -0.116739    4.802408   -4.342902
 H         -0.994966    6.217053   -3.698844
 H          0.794346    6.217448   -3.747157
 C          0.098867    5.572144    3.609067
 H         -0.791658    6.193855    3.766501
 H          0.118238    4.774200    4.352991
 H          0.997665    6.192300    3.718235
 C         -0.098833   -5.572171   -3.608941
 H         -0.997629   -6.192331   -3.718101
 H         -0.118197   -4.774247   -4.352886
 H          0.791694   -6.193885   -3.766350
 C          0.096643   -5.595282    3.593899
 H          0.994926   -6.216889    3.699000
 H          0.116691   -4.802226    4.343010
 H         -0.794386   -6.217283    3.747292
 N         11.757662   -0.001124    0.035956
 N        -11.757672    0.000870   -0.035884
 C         12.490618    1.256201    0.024642
 H         12.242775    1.879278    0.894981
 H         13.560495    1.047337    0.051162
 H         12.280341    1.838660   -0.882401
 C         12.488511   -1.257307    0.114159
 H         12.282898   -1.899880   -0.752539
 H         13.558555   -1.048516    0.133415
 H         12.234190   -1.819391    1.023211
 C        -12.488560    1.256974   -0.114990
 H        -12.234489    1.818366   -1.024553
 H        -13.558606    1.048147   -0.133759
 H        -12.282735    1.900211    0.751149
 C        -12.490529   -1.256521   -0.025490
 H        -12.279961   -1.839677    0.881022
 H        -13.560429   -1.047711   -0.051502
 H        -12.242882   -1.878895   -0.896404
