       150
S0: Total Energy = -6786.56689527
 C          9.088308   -0.537232   -0.036119
 C          8.345356    0.615758   -0.024915
 C          6.930262    0.403296   -0.044909
 C          6.601137   -0.986249   -0.063968
 S          8.058697   -1.980420   -0.070648
 H          8.789355    1.603750    0.010617
 C          5.906258    1.381144   -0.000582
 C          2.110539    0.449146    0.010653
 C          2.853595   -0.703907   -0.001759
 C          4.268645   -0.491452    0.016911
 C          4.597814    0.898128    0.035957
 S          3.140318    1.892345    0.043782
 H          2.409526   -1.691894   -0.036340
 C          5.292671   -1.469305   -0.027649
 C         10.523144   -0.679993   -0.021322
 C         11.275761   -1.844102    0.012294
 S         11.571200    0.722384   -0.046057
 C         12.664217   -1.626658    0.021161
 H         10.830036   -2.832702    0.033702
 C         13.020771   -0.281581   -0.005854
 H         13.409421   -2.415264    0.048285
 C         14.370737    0.206007   -0.000536
 C         15.541887   -0.557290    0.031960
 N         14.765080    1.542824   -0.026690
 C         16.018141   -1.919512    0.070175
 C         16.667230    0.309994    0.026419
 C         16.191442    1.672855   -0.011371
 C         13.934005    2.734392   -0.065096
 N         17.445518   -1.788393    0.086173
 O         15.452879   -3.013811    0.088056
 C         17.837799   -0.452830    0.060096
 O         16.757598    2.766639   -0.029580
 H         14.619624    3.583218   -0.076401
 H         13.294421    2.805807    0.819884
 H         13.317097    2.763727   -0.968428
 C         18.277425   -2.979314    0.126492
 C         19.192454    0.034802    0.066980
 H         17.592895   -3.828939    0.137860
 H         18.918281   -3.050090   -0.757612
 H         18.893837   -3.006471    1.030173
 C         19.549074    1.377251    0.041226
 S         20.643547   -0.968198    0.108737
 H         18.804521    2.166409    0.013607
 C         20.948300    1.590411    0.054714
 C         21.667175    0.422518    0.090606
 H         21.406970    2.572683    0.038506
 H         22.741507    0.294421    0.107623
 C          0.675934    0.591951   -0.000579
 S         -0.372366   -0.810431    0.021933
 C         -0.076800    1.756421   -0.027481
 C         -1.822083    0.194043   -0.009028
 C         -1.465024    1.539501   -0.032278
 H          0.369117    2.744995   -0.046240
 C         -3.171353   -0.293136   -0.008984
 H         -2.210249    2.328294   -0.052905
 C         -4.343688    0.470871   -0.027812
 N         -3.566405   -1.629697    0.011116
 C         -5.467824   -0.395149   -0.018731
 C         -4.819489    1.834505   -0.052356
 C         -4.992406   -1.758582    0.006210
 C         -2.735809   -2.822065    0.033718
 C         -6.640412    0.369158   -0.036415
 N         -6.245387    1.705636   -0.056692
 O         -4.251817    2.927667   -0.067928
 O         -5.559951   -2.851967    0.021473
 H         -3.421718   -3.670677    0.041383
 H         -2.101560   -2.885410   -0.855678
 H         -2.113603   -2.859963    0.933085
 C         -7.989497   -0.117676   -0.034181
 C         -7.076231    2.897897   -0.079501
 S         -9.440113    0.886421   -0.059748
 C         -8.346323   -1.463045   -0.010952
 H         -6.390625    3.746714   -0.089205
 H         -7.709195    2.962080    0.810729
 H         -7.699817    2.934303   -0.977939
 C        -10.487676   -0.516153   -0.034953
 C         -9.734705   -1.680300   -0.011428
 H         -7.600943   -2.251798    0.006963
 C        -11.923203   -0.374054   -0.040398
 H        -10.180508   -2.668874    0.007862
 C        -12.666397    0.777464   -0.029378
 S        -12.952062   -1.818791   -0.061062
 C        -14.083443    0.563815   -0.038743
 H        -12.222927    1.766009   -0.001836
 C        -14.410887   -0.825561   -0.048484
 C        -15.107400    1.539094    0.008253
 C        -15.719630   -1.309331   -0.000097
 C        -16.417717    1.054139    0.057241
 C        -16.743840   -0.335128    0.048456
 S        -17.882846    2.041403    0.068021
 C        -18.170116   -0.548562    0.045761
 C        -18.883200    0.605559    0.056630
 H        -18.624940   -1.531414    0.027635
 H        -19.960158    0.714372    0.057396
 C          6.214049    2.837438    0.000846
 C          5.790855    3.665114    1.053183
 C          6.936497    3.422592   -1.051581
 C          6.080419    5.028757    1.048858
 H          5.249320    3.233813    1.890409
 C          7.221232    4.787018   -1.049500
 H          7.267183    2.804746   -1.881997
 C          6.796552    5.616438   -0.002495
 H          5.749914    5.645401    1.881554
 H          7.779766    5.215627   -1.878541
 C          4.985020   -2.925622   -0.029035
 C          4.262436   -3.510824    1.023320
 C          5.408565   -3.753266   -1.081208
 C          3.977907   -4.875258    1.021258
 H          3.931513   -2.892983    1.853639
 C          5.119182   -5.116986   -1.076860
 H          5.950198   -3.321933   -1.918355
 C          4.402928   -5.704687   -0.025655
 H          3.419269   -5.303904    1.850210
 H          5.449911   -5.733645   -1.909451
 C        -14.801199    2.995517    0.000071
 C        -15.226126    3.830483    1.046091
 C        -14.077808    3.574724   -1.055055
 C        -14.936827    5.194024    1.033488
 H        -15.769276    3.404477    1.884897
 C        -13.793463    4.939330   -1.061634
 H        -13.746177    2.951808   -1.881295
 C        -14.219444    5.775378   -0.020635
 H        -15.268625    5.815923    1.861832
 H        -13.234156    5.362661   -1.892911
 C        -16.024381   -2.766926    0.007977
 C        -15.608407   -3.599488   -1.042853
 C        -16.729760   -3.349709    1.073315
 C        -15.889583   -4.965199   -1.025965
 H        -15.071303   -3.172436   -1.885146
 C        -17.006438   -4.715546    1.084034
 H        -17.047346   -2.729125    1.906787
 C        -16.595088   -5.548737    0.034367
 H        -15.557550   -5.587002   -1.854242
 H        -17.545202   -5.143149    1.926666
 C          7.080395    7.099892   -0.018543
 H          8.000291    7.326132   -0.567687
 H          6.266227    7.652702   -0.505922
 H          7.181109    7.499310    0.996070
 C          4.119200   -7.188161   -0.009422
 H          3.194972   -7.413664    0.532745
 H          4.026658   -7.589256   -1.024125
 H          4.929465   -7.740001    0.485506
 C        -13.936034    7.258858   -0.045535
 H        -13.021241    7.482939   -0.604004
 H        -14.754717    7.809872   -0.527424
 H        -13.825864    7.662564    0.966467
 C        -16.923738   -7.023168    0.035978
 H        -17.907039   -7.210422   -0.415992
 H        -16.188457   -7.598009   -0.536455
 H        -16.953737   -7.425576    1.054067
       150
T1: Total Energy = -6786.53537521
 C         -9.090664   -0.542555    0.033939
 C         -8.342550    0.609241    0.026680
 C         -6.930480    0.392980    0.044552
 C         -6.603969   -0.997853    0.057603
 S         -8.064436   -1.988318    0.061198
 H         -8.783951    1.598594   -0.003959
 C         -5.902098    1.369539    0.003156
 C         -2.105648    0.431778   -0.017298
 C         -2.859825   -0.724121   -0.007314
 C         -4.268672   -0.507322   -0.023567
 C         -4.596664    0.885170   -0.037056
 S         -3.136986    1.878402   -0.043417
 H         -2.417650   -1.712928    0.023695
 C         -5.297573   -1.483715    0.017520
 C        -10.524130   -0.680058    0.020307
 C        -11.281456   -1.842431   -0.009963
 S        -11.568483    0.725982    0.041876
 C        -12.668281   -1.620782   -0.018378
 H        -10.838736   -2.832433   -0.028789
 C        -13.021408   -0.273941    0.005508
 H        -13.416044   -2.407081   -0.042775
 C        -14.369189    0.216676    0.000210
 C        -15.542964   -0.543878   -0.028791
 N        -14.760663    1.554683    0.022902
 C        -16.022741   -1.904870   -0.062457
 C        -16.665775    0.326198   -0.024470
 C        -16.186352    1.688090    0.008839
 C        -13.926570    2.744261    0.056744
 N        -17.449742   -1.770156   -0.077137
 O        -15.460326   -3.000867   -0.077866
 C        -17.838696   -0.433557   -0.054509
 O        -16.750062    2.783237    0.024495
 H        -14.609997    3.594881    0.066023
 H        -13.287634    2.811224   -0.829050
 H        -13.308670    2.774880    0.959357
 C        -18.284662   -2.959063   -0.112995
 C        -19.191951    0.057645   -0.061161
 H        -17.602254   -3.810424   -0.122674
 H        -18.924684   -3.025660    0.772047
 H        -18.902248   -2.987332   -1.015851
 C        -19.545214    1.401090   -0.038924
 S        -20.645747   -0.941774   -0.098185
 H        -18.798584    2.188389   -0.014534
 C        -20.943919    1.617745   -0.051325
 C        -21.665904    0.451659   -0.082888
 H        -21.400035    2.601254   -0.037451
 H        -22.740574    0.326269   -0.098212
 C         -0.685013    0.562675   -0.008514
 S          0.361960   -0.854180   -0.002713
 C          0.085342    1.730865   -0.004427
 C          1.825500    0.150391    0.006822
 C          1.457859    1.516209    0.003822
 H         -0.359738    2.720278   -0.006412
 C          3.143456   -0.327409    0.015061
 H          2.204820    2.302812    0.008208
 C          4.356202    0.453337    0.018811
 N          3.567302   -1.656330    0.020166
 C          5.454106   -0.389303    0.025346
 C          4.830879    1.831080    0.017471
 C          4.979070   -1.768241    0.026828
 C          2.746842   -2.857555    0.021510
 C          6.665663    0.389729    0.028367
 N          6.243721    1.718022    0.023676
 O          4.241793    2.914242    0.012313
 O          5.569640   -2.849939    0.032380
 H          3.436517   -3.702547    0.029173
 H          2.114306   -2.904052    0.912682
 H          2.123925   -2.912762   -0.875972
 C          7.986242   -0.089814    0.034447
 C          7.064624    2.918922    0.022801
 S          9.448307    0.915142    0.040421
 C          8.353442   -1.452824    0.036431
 H          6.375053    3.764020    0.017016
 H          7.696133    2.966342   -0.869064
 H          7.688671    2.972716    0.919588
 C         10.495675   -0.499496    0.042705
 C          9.728770   -1.666794    0.040791
 H          7.607576   -2.240404    0.033794
 C         11.920003   -0.366059    0.046093
 H         10.174520   -2.655854    0.041117
 C         12.671033    0.787992    0.032655
 S         12.950732   -1.812870    0.067357
 C         14.084055    0.571422    0.041321
 H         12.228603    1.776815    0.003724
 C         14.410775   -0.819706    0.052265
 C         15.111075    1.545624   -0.006919
 C         15.717643   -1.304381    0.002975
 C         16.420371    1.058495   -0.056935
 C         16.744467   -0.331149   -0.047308
 S         17.887460    2.043232   -0.068882
 C         18.169460   -0.547114   -0.045105
 C         18.885184    0.606000   -0.057084
 H         18.622572   -1.530759   -0.026535
 H         19.962343    0.712623   -0.058568
 C         -6.208201    2.826322    0.008029
 C         -5.788475    3.657126   -1.043162
 C         -6.925822    3.408645    1.065300
 C         -6.076429    5.021102   -1.032982
 H         -5.250502    3.228019   -1.883800
 C         -7.209067    4.773397    1.069083
 H         -7.254160    2.788246    1.894754
 C         -6.787657    5.605954    0.023253
 H         -5.748540    5.640271   -1.864857
 H         -7.763890    5.199740    1.901790
 C         -4.993117   -2.940361    0.011582
 C         -4.268184   -3.521317   -1.041694
 C         -5.422573   -3.773578    1.057057
 C         -3.987697   -4.886508   -1.047182
 H         -3.932221   -2.899318   -1.866829
 C         -5.137121   -5.138077    1.045247
 H         -5.965694   -3.345957    1.895131
 C         -4.418897   -5.721332   -0.007062
 H         -3.427352   -5.311550   -1.876852
 H         -5.472537   -5.758898    1.872870
 C         14.807116    3.002186    0.001146
 C         15.237903    3.837628   -1.042207
 C         14.080389    3.581858    1.053889
 C         14.951292    5.201721   -1.029285
 H         15.783295    3.411498   -1.879475
 C         13.798931    4.946993    1.060865
 H         13.743994    2.958763    1.878024
 C         14.230872    5.783396    0.022567
 H         15.287604    5.823811   -1.855667
 H         13.237188    5.370543    1.890390
 C         16.021450   -2.762272   -0.003984
 C         15.608013   -3.593081    1.049187
 C         16.723645   -3.346906   -1.070393
 C         15.888454   -4.958969    1.033494
 H         15.073248   -3.164486    1.892178
 C         16.999631   -4.712903   -1.079925
 H         17.039399   -2.727638   -1.905548
 C         16.590766   -5.544371   -0.027924
 H         15.558385   -5.579436    1.863563
 H         17.535920   -5.141984   -1.923389
 C         -7.069797    7.089679    0.045530
 H         -7.987354    7.315034    0.598951
 H         -6.253194    7.639977    0.531691
 H         -7.173980    7.492718   -0.967307
 C         -4.139480   -7.205506   -0.031664
 H         -3.213766   -7.430300   -0.571612
 H         -4.052136   -7.613350    0.980816
 H         -4.949369   -7.751834   -0.533299
 C         13.950413    7.267415    0.048032
 H         13.033517    7.492690    0.602569
 H         14.767986    7.816152    0.534397
 H         13.845752    7.672621   -0.963958
 C         16.918748   -7.018964   -0.028286
 H         17.903198   -7.206049    0.421251
 H         16.184772   -7.592632    0.546999
 H         16.945757   -7.422877   -1.045866
       150
S1: Total Energy = -6786.50942706
 C         -9.084656   -0.554057    0.045203
 C         -8.324546    0.606701    0.037152
 C         -6.926692    0.393504    0.056214
 C         -6.591359   -1.002578    0.068425
 S         -8.051960   -1.997531    0.071995
 H         -8.769194    1.594339    0.003431
 C         -5.893663    1.377722    0.015467
 C         -2.098636    0.453597   -0.006751
 C         -2.860689   -0.709862    0.004365
 C         -4.256037   -0.497371   -0.015686
 C         -4.592414    0.899207   -0.028162
 S         -3.133947    1.896747   -0.034980
 H         -2.415132   -1.697104    0.040229
 C         -5.290364   -1.482440    0.024446
 C        -10.501193   -0.682297    0.032090
 C        -11.273062   -1.848968    0.018053
 S        -11.548033    0.732178    0.030379
 C        -12.648112   -1.626097    0.004323
 H        -10.831765   -2.839977    0.015839
 C        -13.006458   -0.268318    0.007396
 H        -13.399190   -2.409602   -0.009285
 C        -14.341724    0.215022   -0.007519
 C        -15.525472   -0.550734   -0.029956
 N        -14.744605    1.553464   -0.003839
 C        -16.003773   -1.913000   -0.048061
 C        -16.643150    0.314353   -0.040666
 C        -16.165159    1.680323   -0.023814
 C        -13.914771    2.746056    0.017644
 N        -17.429637   -1.781411   -0.069677
 O        -15.439089   -3.010078   -0.047261
 C        -17.823957   -0.446703   -0.065563
 O        -16.736776    2.772512   -0.024153
 H        -14.600423    3.594911    0.015758
 H        -13.274019    2.804477   -0.867506
 H        -13.298225    2.788738    0.920730
 C        -18.261564   -2.972341   -0.092747
 C        -19.171879    0.043847   -0.083478
 H        -17.577434   -3.822370   -0.089073
 H        -18.904836   -3.028345    0.790787
 H        -18.876577   -3.013326   -0.996977
 C        -19.529580    1.389361   -0.079207
 S        -20.627451   -0.958086   -0.114137
 H        -18.783858    2.177622   -0.061600
 C        -20.927245    1.602615   -0.099946
 C        -21.649788    0.435574   -0.120160
 H        -21.384689    2.585780   -0.100039
 H        -22.724282    0.309490   -0.138363
 C         -0.687018    0.578558    0.002477
 S          0.360482   -0.836939    0.010939
 C          0.087237    1.749719    0.004980
 C          1.820338    0.166593    0.019446
 C          1.457464    1.529537    0.014099
 H         -0.356538    2.739451    0.001197
 C          3.148554   -0.310840    0.028324
 H          2.207825    2.313819    0.017278
 C          4.339986    0.463335    0.029218
 N          3.560566   -1.644001    0.036451
 C          5.452718   -0.390053    0.037021
 C          4.812394    1.833023    0.023464
 C          4.980002   -1.761941    0.042237
 C          2.736503   -2.841814    0.042366
 C          6.642938    0.380999    0.036302
 N          6.234863    1.712556    0.028453
 O          4.236765    2.922516    0.016137
 O          5.560003   -2.848235    0.050006
 H          3.425226   -3.687851    0.052901
 H          2.104107   -2.885983    0.934021
 H          2.113199   -2.901349   -0.854851
 C          7.975614   -0.101531    0.041909
 C          7.059476    2.909789    0.023407
 S          9.432335    0.903299    0.042816
 C          8.338480   -1.458443    0.047028
 H          6.370694    3.755864    0.016501
 H          7.689814    2.956051   -0.869691
 H          7.684964    2.966887    0.919323
 C         10.480037   -0.505497    0.047250
 C          9.716288   -1.674048    0.049799
 H          7.591570   -2.245808    0.047653
 C         11.903952   -0.372604    0.047750
 H         10.162349   -2.662833    0.052154
 C         12.655739    0.783359    0.030226
 S         12.934937   -1.818008    0.068981
 C         14.065147    0.568238    0.036555
 H         12.212199    1.771662   -0.001102
 C         14.393828   -0.824059    0.047500
 C         15.092834    1.545350   -0.016103
 C         15.699767   -1.307177   -0.007396
 C         16.400948    1.058493   -0.072349
 C         16.726037   -0.331874   -0.063042
 S         17.868317    2.043555   -0.089306
 C         18.149407   -0.547073   -0.065618
 C         18.865153    0.607286   -0.080593
 H         18.603358   -1.530291   -0.047781
 H         19.942350    0.713532   -0.085880
 C         -6.207468    2.832038    0.023390
 C         -5.783525    3.669229   -1.020614
 C         -6.936012    3.406967    1.078189
 C         -6.076496    5.032517   -1.005946
 H         -5.238818    3.246197   -1.859976
 C         -7.223584    4.770137    1.086547
 H         -7.268864    2.781507    1.901946
 C         -6.797179    5.609607    0.047437
 H         -5.745121    5.656721   -1.832560
 H         -7.786096    5.190400    1.917225
 C         -4.976276   -2.935847    0.014501
 C         -4.233117   -3.506316   -1.032464
 C         -5.414846   -3.778258    1.048999
 C         -3.945560   -4.869688   -1.042870
 H         -3.890360   -2.877878   -1.849824
 C         -5.121254   -5.140914    1.032575
 H         -5.970920   -3.359028    1.882710
 C         -4.385902   -5.713578   -0.013636
 H         -3.372487   -5.286524   -1.867980
 H         -5.463932   -5.768649    1.851912
 C         14.786802    3.000436   -0.005942
 C         15.226059    3.840392   -1.042386
 C         14.049842    3.575513    1.042758
 C         14.937486    5.203961   -1.026856
 H         15.778225    3.418175   -1.877125
 C         13.767406    4.940139    1.052499
 H         13.708047    2.949520    1.862416
 C         14.207405    5.780954    0.020896
 H         15.279853    5.829392   -1.848139
 H         13.198632    5.360119    1.878995
 C         16.005488   -2.764450   -0.014634
 C         15.596695   -3.594981    1.040587
 C         16.704282   -3.348603   -1.083591
 C         15.878420   -4.960572    1.024341
 H         15.065159   -3.166536    1.885702
 C         16.981225   -4.714330   -1.093602
 H         17.016179   -2.729541   -1.920344
 C         16.577123   -5.545713   -0.039615
 H         15.552253   -5.580972    1.855957
 H         17.514524   -5.143313   -1.938965
 C         -7.086689    7.091726    0.076416
 H         -8.059335    7.301475    0.534216
 H         -6.330220    7.630712    0.662278
 H         -7.084139    7.519791   -0.931176
 C         -4.097655   -7.195819   -0.044181
 H         -3.154971   -7.410498   -0.558355
 H         -4.038607   -7.613145    0.966401
 H         -4.889079   -7.741104   -0.575538
 C         13.924903    7.264360    0.049830
 H         12.993691    7.484858    0.582016
 H         14.728949    7.809821    0.561749
 H         13.846463    7.676828   -0.961502
 C         16.906402   -7.019946   -0.040724
 H         17.893303   -7.205610    0.403952
 H         16.175925   -7.593878    0.538677
 H         16.928705   -7.424424   -1.058168
