       152
S0: Total Energy = -6499.98383079
 C         26.168901    0.492373    0.106182
 C         25.104495   -0.405266    0.042613
 N         25.627812    1.772718    0.132995
 C         24.784133   -1.820171   -0.015645
 C         23.880333    0.319084    0.028972
 C         24.199390    1.732981    0.086656
 C         26.300650    3.066835    0.200292
 N         23.356392   -1.859405   -0.062511
 O         25.476868   -2.837134   -0.027797
 C         22.814757   -0.578421   -0.035401
 O         23.505644    2.749886    0.098864
 H         25.507000    3.815223    0.202295
 H         26.954602    3.214023   -0.660102
 H         26.898993    3.150663    1.108364
 C         22.681205   -3.151890   -0.130139
 H         23.473025   -3.902186   -0.131857
 H         22.026836   -3.298207    0.730312
 H         22.083217   -3.234854   -1.038703
 C         27.606754    0.199965    0.139776
 C         28.053882   -1.135309    0.107931
 N         28.461935    1.242256    0.200538
 C         29.423460   -1.379954    0.140668
 H         27.341274   -1.952468    0.058739
 C         29.769989    0.985321    0.230993
 C         30.307508   -0.303768    0.203538
 H         29.792672   -2.401253    0.117176
 H         30.424886    1.853697    0.279855
 H         31.382504   -0.451753    0.230742
 C         21.383915   -0.284249   -0.069035
 C         20.929811    1.050539   -0.034326
 N         20.518051   -1.318958   -0.131456
 C         19.567767    1.298479   -0.057730
 H         21.638978    1.870631    0.020472
 C         19.217268   -1.063363   -0.162635
 C         18.653007    0.230042   -0.126886
 H         19.211944    2.322676   -0.007087
 H         18.569457   -1.936509   -0.231082
 C         17.214299    0.451140   -0.164774
 C         16.535469    1.624894   -0.430830
 S         16.070261   -0.845967    0.148080
 C         15.129061    1.496106   -0.393069
 H         17.035522    2.556529   -0.669899
 C         14.695293    0.217084   -0.095258
 H         14.451300    2.320711   -0.586257
 C         13.345268   -0.278527    0.025933
 C         12.911230   -1.560913    0.308539
 S         11.970565    0.789864   -0.194547
 C         11.504870   -1.688308    0.351866
 H         13.588777   -2.389441    0.485035
 C         10.826230   -0.510127    0.105302
 H         11.004812   -2.622657    0.580057
 C          9.387780   -0.286504    0.078042
 C          8.470711   -1.352620    0.001813
 C          8.825801    1.007307    0.132349
 C          7.109069   -1.102277   -0.010163
 H          8.824452   -2.376739   -0.063049
 N          7.525378    1.265441    0.112561
 H          9.475480    1.878588    0.206795
 C          6.657176    0.232844    0.043584
 H          6.398203   -1.920531   -0.070367
 C          5.227226    0.529537    0.023423
 C          4.158925   -0.365629   -0.044998
 N          4.687335    1.810774    0.070714
 C          3.836627   -1.778843   -0.118905
 C          2.937338    0.360638   -0.040510
 C          3.259605    1.773826    0.033553
 C          5.364825    3.101364    0.150264
 N          2.408912   -1.815817   -0.155645
 O          4.529058   -2.796193   -0.149276
 C          1.869005   -0.534592   -0.108140
 O          2.567209    2.791215    0.063538
 H          4.574155    3.852675    0.167903
 H          6.012884    3.258101   -0.713132
 H          5.969859    3.171423    1.055230
 C          1.731438   -3.106399   -0.235660
 C          0.439031   -0.238037   -0.126600
 H          2.522151   -3.857618   -0.255129
 H          1.084498   -3.264119    0.628387
 H          1.125249   -3.175517   -1.139925
 C         -0.012939    1.097098   -0.073821
 N         -0.429174   -1.270838   -0.192593
 C         -1.374642    1.347231   -0.083068
 H          0.697937    1.915526   -0.016127
 C         -1.729656   -1.012926   -0.209847
 C         -2.291755    0.280885   -0.155663
 H         -1.728393    2.371378   -0.018723
 H         -2.379368   -1.884384   -0.281838
 C         -3.730278    0.504115   -0.179030
 C         -4.410113    1.681908   -0.424183
 S         -4.873294   -0.796016    0.125455
 C         -5.816292    1.554083   -0.376388
 H         -3.911106    2.616278   -0.654606
 C         -6.249064    0.271720   -0.091616
 H         -6.494680    2.382168   -0.551699
 C         -7.598428   -0.224349    0.034542
 C         -8.030574   -1.505287    0.326315
 S         -8.974853    0.840687   -0.192075
 C         -9.436715   -1.634082    0.372601
 H         -7.351777   -2.331487    0.508819
 C        -10.117127   -0.458405    0.119197
 H         -9.935334   -2.567286    0.608490
 C        -11.556015   -0.236970    0.092849
 C        -12.471283   -1.305129    0.023533
 C        -12.120218    1.055954    0.141211
 C        -13.833341   -1.057370    0.012377
 H        -12.115725   -2.328917   -0.036600
 N        -13.421257    1.311676    0.121891
 H        -11.471997    1.928784    0.210305
 C        -14.287716    0.277195    0.059674
 H        -14.542803   -1.877244   -0.041997
 C        -15.718407    0.570772    0.040404
 C        -16.784853   -0.327007   -0.017747
 N        -16.261191    1.851213    0.078782
 C        -17.104389   -1.741464   -0.078649
 C        -18.008215    0.396644   -0.015274
 C        -17.689088    1.810829    0.046191
 C        -15.586326    3.143832    0.144394
 N        -18.532040   -1.781978   -0.109746
 O        -16.409740   -2.757524   -0.103468
 C        -19.074887   -0.501610   -0.071302
 O        -18.383453    2.827225    0.069716
 H        -16.378577    3.893635    0.155518
 H        -14.939757    3.293279   -0.721449
 H        -14.980144    3.224480    1.047742
 C        -19.206763   -3.074755   -0.176293
 C        -20.505673   -0.209102   -0.086929
 H        -18.414391   -3.824331   -0.192309
 H        -19.850253   -3.226521    0.691360
 H        -19.816192   -3.152908   -1.077640
 C        -20.961139    1.125207   -0.045324
 N        -21.371320   -1.244814   -0.139285
 C        -22.323681    1.371464   -0.050717
 H        -20.252219    1.946027    0.001675
 C        -22.672658   -0.990546   -0.153713
 C        -23.238351    0.302236   -0.109386
 H        -22.680788    2.394941    0.006449
 H        -23.320844   -1.863892   -0.215383
 C        -24.677577    0.521089   -0.127544
 C        -25.362880    1.688223   -0.402068
 S        -25.815761   -0.771671    0.227200
 C        -26.770180    1.554832   -0.349345
 H        -24.868159    2.615929   -0.667042
 C        -27.195314    0.280181   -0.028930
 H        -27.455269    2.367982   -0.564018
 C        -28.545028   -0.222600    0.112928
 C        -28.986800   -1.529530    0.139032
 S        -29.903533    0.878701    0.291722
 C        -30.396416   -1.650408    0.293123
 H        -28.320407   -2.378988    0.032173
 C        -31.027790   -0.439632    0.382977
 H        -30.918479   -2.600210    0.328021
 H        -32.084263   -0.237664    0.497843
       152
T1: Total Energy = -6499.94778754
 C         26.165253   -0.479073   -0.181237
 C         25.102496    0.412591   -0.045188
 N         25.623609   -1.756878   -0.262419
 C         24.783621    1.822075    0.095897
 C         23.879124   -0.313025   -0.040695
 C         24.196658   -1.721468   -0.180323
 C         26.294891   -3.044800   -0.412273
 N         23.357627    1.856939    0.179540
 O         25.476566    2.837864    0.144987
 C         22.815168    0.578487    0.097644
 O         23.502836   -2.737298   -0.230164
 H         25.501652   -3.793338   -0.432099
 H         26.970474   -3.234255    0.422775
 H         26.870155   -3.081684   -1.338212
 C         22.684001    3.143404    0.328116
 H         23.475178    3.894195    0.343466
 H         22.005574    3.329384   -0.505644
 H         22.111714    3.181806    1.256000
 C         27.601776   -0.183477   -0.234321
 C         28.049664    1.148584   -0.139437
 N         28.455193   -1.219575   -0.374670
 C         29.417956    1.396584   -0.192853
 H         27.338436    1.960713   -0.027341
 C         29.762065   -0.959467   -0.423660
 C         30.300160    0.326794   -0.337815
 H         29.787641    2.415517   -0.121813
 H         30.415522   -1.822846   -0.537442
 H         31.374140    0.477528   -0.383719
 C         21.386188    0.281309    0.151802
 C         20.930174   -1.049445    0.047377
 N         20.522540    1.309205    0.301908
 C         19.569429   -1.300014    0.092341
 H         21.637259   -1.863920   -0.075582
 C         19.223263    1.050717    0.352290
 C         18.656759   -0.238826    0.251624
 H         19.212540   -2.319876   -0.010749
 H         18.578143    1.917368    0.491983
 C         17.220288   -0.462143    0.312589
 C         16.545985   -1.654304    0.503104
 S         16.069842    0.855549    0.135735
 C         15.140600   -1.523536    0.520792
 H         17.051006   -2.601691    0.653263
 C         14.700046   -0.223166    0.342041
 H         14.466674   -2.358682    0.678584
 C         13.351068    0.279289    0.305413
 C         12.910591    1.592653    0.294373
 S         11.980673   -0.817807    0.259452
 C         11.507985    1.722131    0.257702
 H         13.585752    2.441054    0.328381
 C         10.827393    0.513635    0.241470
 H         11.006864    2.683100    0.261799
 C          9.398438    0.287557    0.210478
 C          8.472100    1.342910    0.038685
 C          8.833198   -1.004485    0.351870
 C          7.118116    1.086573    0.017362
 H          8.820217    2.363009   -0.087834
 N          7.541464   -1.274542    0.331485
 H          9.486963   -1.864578    0.497228
 C          6.657967   -0.249533    0.165351
 H          6.408013    1.895842   -0.116707
 C          5.258536   -0.551272    0.142483
 C          4.141260    0.350559   -0.014529
 N          4.697959   -1.811238    0.271099
 C          3.815779    1.761653   -0.198672
 C          2.955276   -0.360112    0.020971
 C          3.280782   -1.771209    0.205159
 C          5.367358   -3.096701    0.453856
 N          2.398672    1.801660   -0.264816
 O          4.521654    2.768174   -0.289140
 C          1.838027    0.541656   -0.136294
 O          2.574931   -2.777686    0.295881
 H          4.576688   -3.845538    0.508469
 H          5.955876   -3.098522    1.371960
 H          6.032834   -3.307765   -0.383948
 C          1.729361    3.087198   -0.447425
 C          0.438660    0.240004   -0.159916
 H          2.520075    3.836041   -0.501321
 H          1.141313    3.089404   -1.365821
 H          1.063459    3.297936    0.390124
 C         -0.022030   -1.095886   -0.011321
 N         -0.444475    1.265087   -0.327675
 C         -1.376038   -1.351939   -0.034062
 H          0.687741   -1.905247    0.123933
 C         -1.736182    0.995329   -0.349343
 C         -2.302004   -0.296507   -0.207816
 H         -1.724449   -2.371954    0.092311
 H         -2.389522    1.855578   -0.495670
 C         -3.730919   -0.521827   -0.240668
 C         -4.412678   -1.729810   -0.250198
 S         -4.883024    0.810494   -0.271317
 C         -5.815025   -1.599351   -0.291555
 H         -3.912515   -2.691278   -0.245647
 C         -6.254317   -0.285654   -0.313183
 H         -6.490899   -2.447343   -0.321187
 C         -7.602493    0.218029   -0.357532
 C         -8.040579    1.518047   -0.544804
 S         -8.974745   -0.857778   -0.151400
 C         -9.445770    1.650846   -0.533714
 H         -7.364881    2.351495   -0.704047
 C        -10.122646    0.460609   -0.339867
 H         -9.948787    2.598145   -0.690903
 C        -11.559683    0.240008   -0.284029
 C        -12.471198    1.304021   -0.136144
 C        -12.128282   -1.048968   -0.378888
 C        -13.832465    1.056474   -0.096412
 H        -12.112827    2.323856   -0.037982
 N        -13.428314   -1.304762   -0.333437
 H        -11.484136   -1.917797   -0.509512
 C        -14.290961   -0.274167   -0.194620
 H        -14.538542    1.873153    0.017422
 C        -15.720360   -0.567602   -0.146515
 C        -16.783767    0.327561   -0.022302
 N        -16.266183   -1.845285   -0.221188
 C        -17.099439    1.738644    0.102418
 C        -18.007657   -0.394949   -0.020294
 C        -17.692374   -1.805762   -0.147027
 C        -15.595029   -3.134648   -0.353791
 N        -18.525712    1.778481    0.172818
 O        -16.402895    2.752749    0.149302
 C        -19.071347    0.500865    0.098853
 O        -18.388688   -2.820215   -0.190969
 H        -16.387996   -3.883630   -0.366753
 H        -14.921868   -3.314573    0.485596
 H        -15.017380   -3.183222   -1.277890
 C        -19.196559    3.067752    0.309030
 C        -20.501573    0.208721    0.140538
 H        -18.402886    3.815635    0.335047
 H        -19.861900    3.254889   -0.534904
 H        -19.782569    3.109593    1.228166
 C        -20.959893   -1.123013    0.062421
 N        -21.364236    1.242271    0.252334
 C        -22.322160   -1.368718    0.093887
 H        -20.253493   -1.941821   -0.032775
 C        -22.665116    0.988203    0.290729
 C        -23.233596   -0.301843    0.214361
 H        -22.681895   -2.389375    0.009158
 H        -23.310333    1.859076    0.400193
 C        -24.672197   -0.520353    0.261655
 C        -25.352009   -1.696082    0.511945
 S        -25.817268    0.785028   -0.016892
 C        -26.759956   -1.560013    0.500599
 H        -24.852051   -2.633028    0.730438
 C        -27.191464   -0.274492    0.237072
 H        -27.440230   -2.380161    0.703587
 C        -28.543731    0.233651    0.149018
 C        -28.983449    1.541416    0.169531
 S        -29.909595   -0.860921   -0.015478
 C        -30.396859    1.668071    0.061994
 H        -28.312439    2.387211    0.276625
 C        -31.033289    0.460842   -0.038970
 H        -30.917668    2.619188    0.066951
 H        -32.093197    0.263211   -0.126502
       152
S1: Total Energy = -6499.92387115
 C         26.154228   -0.471126   -0.166242
 C         25.082598    0.418521   -0.071862
 N         25.618905   -1.752352   -0.227716
 C         24.754896    1.830232    0.026829
 C         23.864428   -0.311737   -0.074614
 C         24.190654   -1.721452   -0.173959
 C         26.297954   -3.040362   -0.334047
 N         23.328829    1.861524    0.078562
 O         25.444045    2.849429    0.065853
 C         22.790696    0.579021    0.017038
 O         23.502184   -2.742083   -0.211352
 H         25.508233   -3.792663   -0.352419
 H         26.957473   -3.207480    0.518496
 H         26.892047   -3.095943   -1.247084
 C         22.647938    3.147971    0.186706
 H         23.436171    3.901582    0.212504
 H         21.992886    3.318491   -0.668816
 H         22.049209    3.199256    1.097184
 C         27.588610   -0.169876   -0.198213
 C         28.029208    1.166623   -0.124620
 N         28.450253   -1.204666   -0.298619
 C         29.396848    1.420179   -0.157089
 H         27.312184    1.977496   -0.044702
 C         29.756394   -0.938662   -0.328049
 C         30.287028    0.351865   -0.260788
 H         29.760277    2.442370   -0.101824
 H         30.416112   -1.801007   -0.409642
 H         31.360989    0.506972   -0.289248
 C         21.367219    0.277503    0.043297
 C         20.917005   -1.060097   -0.022422
 N         20.492207    1.306600    0.129168
 C         19.558915   -1.316534   -0.002832
 H         21.630628   -1.875024   -0.093979
 C         19.195469    1.043217    0.150634
 C         18.633909   -0.253956    0.086622
 H         19.212667   -2.343009   -0.066725
 H         18.543444    1.912558    0.230358
 C         17.202711   -0.477812    0.112639
 C         16.522127   -1.684659    0.198007
 S         16.051807    0.851319    0.031284
 C         15.122347   -1.557213    0.204361
 H         17.024425   -2.642439    0.268733
 C         14.678270   -0.242513    0.122543
 H         14.447536   -2.403439    0.275165
 C         13.335859    0.253774    0.104265
 C         12.893937    1.572370    0.069816
 S         11.960490   -0.841286    0.122151
 C         11.497317    1.704020    0.060349
 H         13.571660    2.419278    0.056298
 C         10.809391    0.493846    0.087095
 H         10.998495    2.665703    0.037069
 C          9.384578    0.275827    0.087228
 C          8.455179    1.343842    0.049718
 C          8.817878   -1.024353    0.124668
 C          7.100909    1.090089    0.050452
 H          8.800976    2.372025    0.019528
 N          7.525200   -1.288389    0.125482
 H          9.472148   -1.895797    0.156096
 C          6.642263   -0.252902    0.088585
 H          6.387166    1.907596    0.021901
 C          5.233599   -0.548169    0.088604
 C          4.144359    0.353025    0.057067
 N          4.682314   -1.826343    0.120386
 C          3.822021    1.771397    0.017180
 C          2.936821   -0.366154    0.069334
 C          3.259509   -1.783835    0.109905
 C          5.356435   -3.119832    0.159891
 N          2.400631    1.814759    0.007663
 O          4.522053    2.785639   -0.005927
 C          1.847180    0.535877    0.038845
 O          2.560954   -2.799234    0.132538
 H          4.565052   -3.870430    0.174620
 H          5.977693   -3.210095    1.052155
 H          5.990006   -3.257805   -0.717504
 C          1.727302    3.108531   -0.032553
 C          0.441582    0.241400    0.039105
 H          2.519140    3.858607   -0.049420
 H          1.104944    3.198311   -0.924156
 H          1.095141    3.248414    0.845580
 C         -0.019132   -1.103114    0.070981
 N         -0.442829    1.278536    0.008239
 C         -1.371594   -1.356883    0.070431
 H          0.694789   -1.920568    0.095826
 C         -1.733652    1.015393    0.008478
 C         -2.302748   -0.286659    0.038611
 H         -1.717572   -2.385108    0.095059
 H         -2.388180    1.887014   -0.017273
 C         -3.722067   -0.500610    0.036757
 C         -4.413415   -1.715927    0.058508
 S         -4.873050    0.835740    0.004397
 C         -5.803730   -1.586096    0.049359
 H         -3.912546   -2.676412    0.080112
 C         -6.250646   -0.261895    0.020314
 H         -6.481730   -2.432712    0.063663
 C         -7.584954    0.226483    0.004828
 C         -8.030706    1.551266   -0.021735
 S         -8.962865   -0.869849    0.019441
 C         -9.421794    1.680646   -0.029496
 H         -7.352481    2.397517   -0.034979
 C        -10.112242    0.466933   -0.009800
 H         -9.922002    2.641638   -0.049712
 C        -11.534012    0.253405   -0.010917
 C        -12.462350    1.323411   -0.024642
 C        -12.102743   -1.048293    0.002072
 C        -13.817105    1.070307   -0.024209
 H        -12.115953    2.351597   -0.034638
 N        -13.395665   -1.308212    0.002371
 H        -11.450187   -1.921210    0.012299
 C        -14.274919   -0.271538   -0.010189
 H        -14.529581    1.889128   -0.033305
 C        -15.687788   -0.567360   -0.007936
 C        -16.770012    0.333900   -0.010307
 N        -16.235583   -1.847012   -0.000436
 C        -17.093000    1.750574   -0.013676
 C        -17.982211   -0.387294   -0.002706
 C        -17.659850   -1.805370    0.002928
 C        -15.560307   -3.141155    0.000238
 N        -18.520334    1.790733   -0.006559
 O        -16.399245    2.767560   -0.021662
 C        -19.063525    0.512538    0.000625
 O        -18.357100   -2.819841    0.008311
 H        -16.351517   -3.892007    0.000152
 H        -14.933722   -3.255145    0.885890
 H        -14.933214   -3.255439   -0.885047
 C        -19.196597    3.084555   -0.011016
 C        -20.483289    0.215437    0.011477
 H        -18.405834    3.835738   -0.024565
 H        -19.831709    3.190275   -0.891550
 H        -19.815448    3.205360    0.879086
 C        -20.937399   -1.123765    0.010455
 N        -21.358159    1.250306    0.022565
 C        -22.296257   -1.375524    0.016853
 H        -20.225366   -1.943049   -0.001265
 C        -22.655254    0.989805    0.034255
 C        -23.219061   -0.308082    0.031456
 H        -22.645500   -2.402888   -0.000332
 H        -23.307255    1.862521    0.055491
 C        -24.652765   -0.528632    0.046242
 C        -25.337475   -1.718114    0.227798
 S        -25.798877    0.788264   -0.183140
 C        -26.741973   -1.584161    0.198956
 H        -24.841572   -2.666343    0.400844
 C        -27.174009   -0.285956   -0.008293
 H        -27.422759   -2.415966    0.344613
 C        -28.524393    0.220219   -0.092242
 C        -28.963418    1.529921   -0.089501
 S        -29.894078   -0.875480   -0.223282
 C        -30.376352    1.656149   -0.185619
 H        -28.291020    2.377250   -0.006105
 C        -31.014906    0.447319   -0.260842
 H        -30.896441    2.607555   -0.192923
 H        -32.075749    0.249896   -0.336854
