       106
S0: Total Energy = -6389.87117872
 C         13.992164    4.787482    0.213511
 C         12.780463    4.124408    0.400856
 C         12.801710    2.730139    0.178527
 C         14.010203    2.083109   -0.215349
 C         15.223070    2.745819   -0.399434
 C         15.201983    4.138807   -0.181571
 C         16.290064    5.078333   -0.309817
 H         17.293609    4.801888   -0.611461
 C         15.936193    6.355817   -0.021776
 S         14.252437    6.522776    0.428361
 C         12.046209    0.496183    0.028704
 S         13.757491    0.351847   -0.428055
 C         11.720722    1.799464    0.311583
 H         10.726052    2.087727    0.631666
 H         16.566106    7.235701   -0.042770
 C         11.151972   -0.643545    0.034329
 C         11.422985   -2.009840    0.107747
 S          9.423121   -0.341067   -0.053196
 C         10.237011   -2.786248    0.111624
 C          9.067945   -2.052577    0.037318
 H         10.239577   -3.866878    0.177009
 C          7.686524   -2.476008    0.018638
 C          7.267806   -3.857750    0.061739
 C          5.439583   -1.840846   -0.069880
 C          5.852631   -4.176704    0.039770
 C          4.881830   -3.116262   -0.026163
 N          8.058351   -4.932039    0.124446
 N          5.611930   -5.491714    0.088418
 C          3.448700   -3.345071   -0.044576
 C          2.755229   -4.536210   -0.132835
 S          2.312430   -2.008972    0.054774
 C          1.340321   -4.412286   -0.142109
 H          3.259454   -5.491291   -0.200789
 C          0.926994   -3.087241   -0.060028
 C         -0.395859   -2.499175   -0.057221
 C         -0.721812   -1.194908   -0.337519
 S         -1.836569   -3.433181    0.397853
 C         -2.112704   -0.883329   -0.204751
 H          0.019922   -0.471666   -0.656444
 C         -2.876992   -2.024984    0.184535
 C         -2.747301    0.359487   -0.424600
 C         -4.257783   -2.010143    0.363142
 C         -4.128367    0.374828   -0.245264
 C         -4.892505   -0.766938    0.143284
 S         -5.168015    1.783219   -0.456216
 C         -6.282996   -0.456133    0.274534
 C         -6.610008    0.848482   -0.004851
 H         -7.024738   -1.180699    0.590333
 C         -7.935054    1.432159    0.001765
 C         -8.339777    2.765610    0.064393
 S         -9.318438    0.349859   -0.068389
 C         -9.751854    2.891415    0.073503
 C        -10.437340    1.693066    0.013898
 H        -10.258521    3.846404    0.131425
 C        -11.856549    1.415562    0.004018
 C        -12.876171    2.437301    0.048143
 C        -13.541960   -0.201615   -0.065792
 C        -14.275030    2.051968    0.032693
 N        -12.683715    3.757542    0.104027
 C        -14.633483    0.659907   -0.027287
 N        -15.105860    3.100395    0.078127
 C        -16.009751    0.186149   -0.046343
 C        -17.182557    0.911179   -0.007809
 S        -16.378284   -1.537143   -0.128286
 C        -18.370968    0.117417   -0.042372
 H        -17.189574    1.992246    0.044193
 C        -18.082954   -1.220610   -0.107703
 H        -18.779244   -2.048520   -0.145604
 C         -1.976505    1.583099   -0.852082
 H         -1.857027    1.621347   -1.942985
 H         -2.486429    2.502624   -0.546342
 H         -0.975492    1.601921   -0.410867
 C         -5.028948   -3.233616    0.790217
 H         -4.516626   -4.153245    0.488945
 H         -5.153042   -3.269086    1.880676
 H         -6.028085   -3.254631    0.344912
 C         11.531268    4.846814    0.838510
 H         10.629170    4.366778    0.448603
 H         11.445628    4.871738    1.933056
 H         11.528699    5.884105    0.487128
 C         16.468108    2.011896   -0.831137
 H         16.516076    1.015336   -0.377379
 H         16.495096    1.874894   -1.920386
 H         17.376253    2.547298   -0.542523
 S          7.071825   -6.243796    0.154102
 S        -14.171387    4.450446    0.134686
 C         12.787281   -2.645420    0.197662
 H         13.331353   -2.583375   -0.752893
 H         13.411892   -2.171774    0.962141
 H         12.691433   -3.705506    0.450402
 C          0.441762   -5.618038   -0.252584
 H         -0.054065   -5.846135    0.699164
 H         -0.342544   -5.478877   -1.003617
 H          1.026919   -6.498154   -0.535031
 C         -7.436331    3.970421    0.138184
 H         -6.662063    3.857585    0.904218
 H         -6.927445    4.159712   -0.815047
 H         -8.020604    4.863328    0.379411
 C        -19.761939    0.692889   -0.010419
 H        -19.927689    1.280541    0.900780
 H        -19.934230    1.362650   -0.861799
 H        -20.519401   -0.095750   -0.044348
 H        -13.713477   -1.274742   -0.112245
 H          4.782583   -0.976149   -0.134473
 N        -12.235134    0.143590   -0.051222
 N          6.753470   -1.531126   -0.046157
       106
T1: Total Energy = -6389.83607860
 C        -13.855763    4.834401   -0.013610
 C        -12.631828    4.169891   -0.012596
 C        -12.698590    2.756865   -0.001205
 C        -13.962811    2.094200    0.013879
 C        -15.186069    2.758871    0.012248
 C        -15.120891    4.169384    0.001894
 C        -16.214224    5.108586    0.010087
 H        -17.258253    4.818814    0.033311
 C        -15.811844    6.405073   -0.007499
 S        -14.072285    6.589615   -0.035369
 C        -11.982075    0.499821    0.005923
 S        -13.755875    0.343283    0.036083
 C        -11.613324    1.832506   -0.010938
 H        -10.575224    2.142883   -0.036301
 H        -16.435974    7.289317   -0.006686
 C        -11.100189   -0.630034    0.005237
 C        -11.378210   -2.013447    0.003033
 S         -9.357702   -0.338307    0.006795
 C        -10.214530   -2.793590    0.000815
 C         -9.018010   -2.064186    0.001812
 H        -10.217949   -3.875742   -0.002133
 C         -7.672328   -2.500143    0.000076
 C         -7.266787   -3.882347   -0.002960
 C         -5.442638   -1.819502    0.000382
 C         -5.850604   -4.211346   -0.004377
 C         -4.880304   -3.141954   -0.002611
 N         -8.070726   -4.945228   -0.004742
 N         -5.600980   -5.517575   -0.007221
 C         -3.480366   -3.348574   -0.003666
 C         -2.768119   -4.560703   -0.006686
 S         -2.335214   -2.002449   -0.001051
 C         -1.376167   -4.439848   -0.006906
 H         -3.285068   -5.510954   -0.008638
 C         -0.945810   -3.093922   -0.004018
 C          0.363857   -2.529620   -0.003149
 C          0.679938   -1.177763   -0.000172
 S          1.844764   -3.516409   -0.005871
 C          2.068591   -0.888280    0.000152
 H         -0.081721   -0.406608    0.001807
 C          2.866799   -2.076774   -0.002616
 C          2.678140    0.391900    0.002934
 C          4.254503   -2.069365   -0.002674
 C          4.067213    0.397761    0.002769
 C          4.863535   -0.789603    0.000040
 S          5.090624    1.834324    0.005805
 C          6.256763   -0.497071    0.000347
 C          6.566811    0.846704    0.003224
 H          7.018530   -1.268181   -0.001611
 C          7.887799    1.428617    0.004100
 C          8.294078    2.766235    0.006847
 S          9.276278    0.346072    0.001317
 C          9.704532    2.893201    0.006634
 C         10.391158    1.693702    0.003809
 H         10.210457    3.850241    0.008511
 C         11.810497    1.417798    0.002704
 C         12.828778    2.440818    0.004074
 C         13.494761   -0.201484   -0.001052
 C         14.227513    2.055351    0.002652
 N         12.635979    3.762312    0.006528
 C         14.586389    0.661990   -0.000064
 N         15.058110    3.104909    0.004075
 C         15.961976    0.188080   -0.001675
 C         17.134943    0.914570    0.000053
 S         16.330681   -1.537121   -0.006416
 C         18.323117    0.120430   -0.002288
 H         17.141777    1.996877    0.002951
 C         18.034809   -1.219443   -0.005835
 H         18.731247   -2.048102   -0.008206
 C          1.842775    1.646572    0.006119
 H          1.196240    1.689841    0.891102
 H          2.460813    2.548274    0.004994
 H          1.191349    1.691036   -0.875172
 C          5.091505   -3.323460   -0.005903
 H          4.474638   -4.226073   -0.001779
 H          5.735941   -3.367514   -0.892352
 H          5.745131   -3.365825    0.873799
 C        -11.311134    4.896134   -0.045609
 H        -10.572864    4.412818    0.602498
 H        -10.892157    4.918037   -1.060280
 H        -11.413969    5.932467    0.290243
 C        -16.497723    2.014759    0.046859
 H        -16.425403    1.058936   -0.483588
 H        -16.805853    1.793956    1.077480
 H        -17.301242    2.589172   -0.421954
 S         -7.083084   -6.294895   -0.008067
 S         14.123757    4.455842    0.006989
 C        -12.748632   -2.638558    0.001486
 H        -13.327036   -2.359150    0.889897
 H        -13.333744   -2.340243   -0.876172
 H        -12.662334   -3.728643   -0.010076
 C         -0.475748   -5.646367   -0.009950
 H          0.172477   -5.669161   -0.893623
 H          0.173257   -5.673036    0.873038
 H         -1.075372   -6.560490   -0.011689
 C          7.395288    3.975829    0.009769
 H          6.746384    4.008004   -0.873191
 H          6.747084    4.004251    0.893376
 H          7.997072    4.889064    0.011469
 C         19.714199    0.696461   -0.000994
 H         19.883148    1.327928   -0.881747
 H         19.883286    1.323616    0.882806
 H         20.471456   -0.093051   -0.002983
 H         13.666677   -1.275475   -0.003008
 H         -4.759788   -0.970145    0.001775
 N         12.188758    0.144231    0.000202
 N         -6.715053   -1.511681    0.001626
       106
S1: Total Energy = -6389.81935315
 C        -13.905840    4.807984   -0.061464
 C        -12.678939    4.150805   -0.102052
 C        -12.733356    2.738624   -0.033623
 C        -13.989306    2.069736    0.072608
 C        -15.216348    2.726826    0.110425
 C        -15.163434    4.136426    0.045612
 C        -16.262252    5.068395    0.077690
 H        -17.301223    4.772962    0.166606
 C        -15.872691    6.366301   -0.008004
 S        -14.138507    6.560703   -0.134281
 C        -11.996602    0.490884    0.020673
 S        -13.764226    0.322767    0.148028
 C        -11.641392    1.821655   -0.065413
 H        -10.608998    2.138492   -0.158494
 H        -16.503346    7.245905   -0.005869
 C        -11.107552   -0.640979    0.025215
 C        -11.377905   -2.016807    0.041497
 S         -9.369709   -0.342598    0.005400
 C        -10.200254   -2.794564    0.032393
 C         -9.020809   -2.061954    0.011453
 H        -10.199304   -3.876863    0.039193
 C         -7.650622   -2.487068   -0.001702
 C         -7.243850   -3.864309    0.005292
 C         -5.422971   -1.820114   -0.031328
 C         -5.830433   -4.186972   -0.007457
 C         -4.872086   -3.116662   -0.025278
 N         -8.051593   -4.934657    0.023602
 N         -5.572514   -5.499818    0.000963
 C         -3.447275   -3.336465   -0.035656
 C         -2.750010   -4.541949   -0.052248
 S         -2.310559   -1.996078   -0.025636
 C         -1.347232   -4.423967   -0.058074
 H         -3.268797   -5.491005   -0.060160
 C         -0.917828   -3.086175   -0.045060
 C          0.389748   -2.520216   -0.042906
 C          0.706370   -1.161206   -0.029559
 S          1.865368   -3.502896   -0.054753
 C          2.086148   -0.873713   -0.027405
 H         -0.058138   -0.393437   -0.020897
 C          2.889434   -2.062555   -0.039961
 C          2.697459    0.414180   -0.013884
 C          4.271539   -2.054240   -0.039619
 C          4.081119    0.422189   -0.013316
 C          4.882938   -0.765989   -0.025411
 S          5.103890    1.861449    0.002744
 C          6.264013   -0.476907   -0.021117
 C          6.578567    0.878629   -0.006400
 H          7.028206   -1.245273   -0.028827
 C          7.892817    1.445592    0.001496
 C          8.307926    2.788217    0.012994
 S          9.281379    0.356606   -0.002962
 C          9.712697    2.908844    0.017720
 C         10.396823    1.702136    0.010414
 H         10.225825    3.861827    0.026336
 C         11.812259    1.424471    0.012805
 C         12.831807    2.442759    0.024051
 C         13.480912   -0.207709    0.006411
 C         14.228875    2.050531    0.026112
 N         12.643561    3.765514    0.033095
 C         14.579262    0.655380    0.017038
 N         15.066320    3.094477    0.036721
 C         15.948691    0.174285    0.018763
 C         17.127441    0.894799    0.029764
 S         16.308917   -1.554056    0.006175
 C         18.309762    0.094728    0.028347
 H         17.138886    1.977006    0.038672
 C         18.013677   -1.244624    0.016123
 H         18.706284   -2.076526    0.012296
 C          1.855517    1.662523   -0.000518
 H          1.208277    1.692012    0.884491
 H          2.467109    2.568417    0.005991
 H          1.203670    1.707826   -0.881407
 C          5.113661   -3.303000   -0.053212
 H          4.501543   -4.208461   -0.058057
 H          5.759196   -3.333558   -0.939315
 H          5.766388   -3.347959    0.826902
 C        -11.363871    4.876872   -0.229417
 H        -10.617701    4.472608    0.463398
 H        -10.952208    4.782783   -1.242868
 H        -11.468348    5.944227   -0.013857
 C        -16.518617    1.976802    0.240786
 H        -16.464970    1.000641   -0.253556
 H        -16.773341    1.796125    1.293610
 H        -17.349210    2.526821   -0.209922
 S         -7.056200   -6.271737    0.023927
 S         14.138309    4.453674    0.043371
 C        -12.742524   -2.655950    0.061738
 H        -13.303869   -2.397660    0.967676
 H        -13.352169   -2.351972   -0.797050
 H        -12.645640   -3.745012    0.032268
 C         -0.452789   -5.633921   -0.076553
 H          0.193715   -5.650486   -0.962161
 H          0.199108   -5.673269    0.804401
 H         -1.055336   -6.545967   -0.086363
 C          7.409788    3.996160    0.019728
 H          6.761486    4.029614   -0.863875
 H          6.760312    4.018812    0.902846
 H          8.010271    4.909883    0.025796
 C         19.704458    0.661711    0.039035
 H         19.881097    1.296684   -0.837614
 H         19.873046    1.283181    0.926868
 H         20.456750   -0.132468    0.036393
 H         13.651247   -1.282053   -0.001036
 H         -4.750731   -0.962885   -0.047645
 N         12.182094    0.142993    0.004316
 N         -6.716329   -1.508352   -0.020735
