       118
S0: Total Energy = -6697.16722213
 C         -8.656075   -0.745674   -0.366169
 C         -9.310560   -1.882049   -0.845484
 S         -9.805246    0.517053    0.057164
 C        -10.716858   -1.711939   -0.876126
 C        -11.158768   -0.480681   -0.431071
 H        -11.395934   -2.479447   -1.225148
 C        -12.494262    0.059124   -0.315377
 C        -13.689573   -0.667748   -0.674679
 C        -13.833699    1.875298    0.291455
 C        -14.985383   -0.033508   -0.518740
 N        -13.755098   -1.911392   -1.156203
 C        -15.068550    1.309012   -0.008335
 N        -16.000840   -0.822495   -0.889896
 C        -16.325493    2.018364    0.180814
 C        -17.611900    1.601089   -0.090563
 S        -16.357794    3.653388    0.842701
 C        -18.623964    2.562183    0.218718
 H        -17.824684    0.623633   -0.503816
 C        -18.087007    3.714761    0.729259
 H        -18.611044    4.606005    1.049723
 S        -15.345606   -2.243545   -1.390912
 C         -8.657289   -3.160508   -1.304037
 H         -7.882810   -2.980046   -2.057997
 H         -8.185992   -3.702011   -0.474462
 H         -9.404338   -3.826079   -1.746176
 C        -20.095428    2.325254    0.005133
 H        -20.315937    2.121993   -1.049942
 H        -20.445875    1.459557    0.580340
 H        -20.686330    3.193727    0.310885
 H        -13.795462    2.889870    0.681906
 N        -12.620322    1.296827    0.151063
 C         -7.247296   -0.476889   -0.187503
 S         -6.018241   -1.754494   -0.255152
 C         -6.658216    0.740940    0.081139
 C         -4.746495   -0.606982    0.081497
 C         -5.243517    0.697594    0.239391
 H         -7.238685    1.653477    0.151456
 C         -3.366737   -0.867860    0.187422
 C         -4.336155    1.787710    0.519561
 C         -2.460108    0.169015    0.462356
 S         -2.564976   -2.411252    0.027693
 C         -2.939721    1.522097    0.632962
 C         -4.782874    3.117026    0.688411
 C         -1.121536   -0.313357    0.543404
 C         -0.984395   -1.669644    0.337881
 C         -2.071104    2.601540    0.908150
 C         -3.919085    4.165749    0.958077
 H         -5.845009    3.329895    0.605063
 H         -0.270454    0.320254    0.764316
 H         -1.005135    2.410255    0.995519
 C         -2.523655    3.900511    1.070927
 C         -4.451807    5.567809    1.128883
 C         -1.549964    5.016312    1.363619
 H         -4.210096    5.974514    2.119287
 H         -4.019388    6.257195    0.392275
 H         -5.539253    5.593136    1.012904
 H         -0.523808    4.640698    1.414615
 H         -1.584192    5.795984    0.591798
 H         -1.774916    5.509362    2.318138
 C          0.241491   -2.435380    0.322318
 S          1.764743   -1.562670    0.195108
 C          0.466028   -3.806334    0.397693
 C          2.702720   -3.047194    0.274476
 C          1.848539   -4.128266    0.370814
 C         -0.592424   -4.873229    0.513228
 C          4.152737   -3.023161    0.234695
 H          2.213514   -5.145198    0.430199
 H         -1.164037   -4.985871   -0.416533
 H         -0.129561   -5.840076    0.731056
 H         -1.309409   -4.656810    1.312786
 C          4.884289   -1.837978    0.200831
 C          4.965344   -4.211341    0.226508
 H          4.355183   -0.887437    0.211138
 N          6.227747   -1.716833    0.157871
 C          6.411065   -4.095298    0.183651
 N          4.543353   -5.480368    0.254066
 C          7.019433   -2.785614    0.147622
 N          7.043340   -5.271201    0.180746
 S          5.883340   -6.432149    0.228270
 C          8.445235   -2.561966    0.103442
 S          9.035730   -0.913545    0.082120
 C          9.500719   -3.454249    0.078575
 C         10.706083   -1.458816    0.018241
 C         10.782601   -2.852586    0.033430
 H          9.352529   -4.526657    0.085270
 C         11.749377   -0.459666   -0.048635
 C         12.044693   -3.675424   -0.008847
 S         13.449867   -0.835388    0.288449
 C         11.601744    0.880816   -0.332350
 H         12.702735   -3.377809   -0.832774
 H         12.623291   -3.587975    0.919179
 H         11.799370   -4.733090   -0.142170
 C         13.911429    0.828736    0.036358
 C         12.810642    1.635762   -0.290590
 H         10.637815    1.309614   -0.580707
 C         15.208199    1.379160    0.120612
 C         12.998046    3.046185   -0.543813
 C         15.420480    2.745222   -0.118131
 S         16.698733    0.547715    0.510435
 C         14.308920    3.601835   -0.456655
 C         11.925376    3.903525   -0.876133
 C         16.808004    3.093758    0.022097
 C         17.598941    2.036164    0.350851
 C         14.469761    4.983411   -0.708397
 C         12.098884    5.255722   -1.119862
 H         10.922840    3.490163   -0.943671
 H         17.200672    4.094252   -0.116926
 H         18.668392    2.028995    0.513360
 H         15.464291    5.416374   -0.645135
 C         13.408629    5.811299   -1.033853
 C         10.915853    6.125287   -1.470968
 C         13.638889    7.280592   -1.293320
 H         10.781792    6.938389   -0.745867
 H         11.038582    6.598279   -2.453869
 H          9.990920    5.541586   -1.493796
 H         14.696405    7.538981   -1.184822
 H         13.325577    7.566745   -2.305651
 H         13.066853    7.908925   -0.598500
       118
T1: Total Energy = -6697.13289748
 C          8.654634   -0.828489    0.089111
 C          9.342425   -2.043831    0.158307
 S          9.773336    0.527640   -0.006116
 C         10.746199   -1.861534    0.138941
 C         11.155381   -0.543897    0.055014
 H         11.448638   -2.683764    0.187620
 C         12.479888    0.032802    0.011401
 C         13.696812   -0.742668    0.053013
 C         13.770695    1.976007   -0.117025
 C         14.977884   -0.063172    0.004650
 N         13.796679   -2.071792    0.135208
 C         15.024305    1.372098   -0.084540
 N         16.017315   -0.905017    0.052236
 C         16.263618    2.132642   -0.136015
 C         17.566638    1.679147   -0.126328
 S         16.247525    3.894545   -0.225117
 C         18.553107    2.711359   -0.189291
 H         17.809088    0.625551   -0.075008
 C         17.979869    3.954850   -0.246666
 H         18.479273    4.913624   -0.300739
 S         15.399964   -2.424232    0.149485
 C          8.724584   -3.414882    0.249386
 H          8.070450   -3.514575    1.123540
 H          8.125447   -3.655709   -0.637138
 H          9.507154   -4.174269    0.333253
 C         20.036291    2.452485   -0.191507
 H         20.347823    1.920530    0.715689
 H         20.329689    1.831298   -1.046535
 H         20.602657    3.386987   -0.244642
 H         13.704605    3.059515   -0.185675
 N         12.571420    1.355778   -0.071962
 C          7.239728   -0.550461    0.087745
 S          6.014646   -1.832367    0.062090
 C          6.634215    0.693059    0.094438
 C          4.723928   -0.655313    0.060259
 C          5.215325    0.664976    0.078795
 H          7.211883    1.609691    0.115154
 C          3.344276   -0.906379    0.045851
 C          4.293465    1.780475    0.082640
 C          2.418190    0.158793    0.048704
 S          2.553707   -2.463779    0.022524
 C          2.891379    1.527595    0.067234
 C          4.734380    3.121075    0.100748
 C          1.084779   -0.310531    0.032588
 C          0.950470   -1.695729    0.017129
 C          2.009913    2.629267    0.070669
 C          3.857515    4.194522    0.104079
 H          5.801290    3.324717    0.112332
 H          0.221576    0.344405    0.032458
 H          0.938748    2.448425    0.058860
 C          2.456404    3.941631    0.088524
 C          4.384245    5.608772    0.123912
 C          1.468247    5.082375    0.091104
 H          4.048229    6.177046   -0.752829
 H          4.033878    6.157603    1.007421
 H          5.477928    5.622319    0.132972
 H          0.438963    4.712505    0.078504
 H          1.586626    5.717148    0.978559
 H          1.601962    5.734290   -0.781644
 C         -0.265709   -2.437994    0.000085
 S         -1.795074   -1.553481   -0.000723
 C         -0.501310   -3.830843   -0.016858
 C         -2.738835   -3.048474   -0.023011
 C         -1.862253   -4.147136   -0.029521
 C          0.561642   -4.896792   -0.021245
 C         -4.154097   -3.042354   -0.031194
 H         -2.239342   -5.160922   -0.043204
 H          1.199994   -4.841012    0.868450
 H          0.098610   -5.887031   -0.036968
 H          1.214303   -4.819599   -0.898847
 C         -4.899070   -1.813725   -0.020996
 C         -4.961841   -4.239094   -0.049444
 H         -4.344035   -0.875943   -0.007418
 N         -6.202529   -1.690321   -0.026038
 C         -6.410269   -4.115411   -0.055516
 N         -4.528191   -5.496359   -0.062022
 C         -7.008725   -2.805372   -0.042874
 N         -7.054663   -5.282022   -0.072739
 S         -5.884406   -6.477238   -0.080871
 C         -8.402911   -2.567375   -0.046089
 S         -8.988181   -0.908105   -0.027817
 C         -9.481874   -3.461623   -0.061704
 C        -10.670331   -1.448656   -0.041360
 C        -10.745672   -2.857838   -0.059342
 H         -9.328576   -4.532794   -0.074453
 C        -11.705257   -0.460135   -0.032839
 C        -12.012992   -3.671200   -0.074863
 S        -13.435728   -0.869035   -0.042703
 C        -11.542870    0.917385   -0.015745
 H        -12.633491   -3.480536    0.808899
 H        -12.626903   -3.457026   -0.957835
 H        -11.773256   -4.738050   -0.088138
 C        -13.878655    0.819376   -0.023396
 C        -12.751669    1.661510   -0.010100
 H        -10.560720    1.375080   -0.007384
 C        -15.179479    1.359053   -0.020345
 C        -12.923925    3.097857    0.006857
 C        -15.377326    2.749719   -0.003890
 S        -16.697951    0.486371   -0.035159
 C        -14.242153    3.641905    0.010079
 C        -11.828823    3.989088    0.020508
 C        -16.774602    3.080827   -0.003667
 C        -17.587792    1.988589   -0.019221
 C        -14.387619    5.047409    0.027018
 C        -11.987046    5.365441    0.036966
 H        -10.820483    3.584581    0.018054
 H        -17.159832    4.093640    0.007542
 H        -18.669292    1.964248   -0.022488
 H        -15.387628    5.472217    0.029748
 C        -13.303755    5.909712    0.040406
 C        -10.779807    6.271508    0.050997
 C        -13.517835    7.403937    0.058393
 H        -10.763838    6.937665   -0.821263
 H        -10.768513    6.916658    0.938969
 H         -9.852078    5.691925    0.046532
 H        -14.583863    7.649649    0.058471
 H        -13.066561    7.866481    0.945622
 H        -13.061619    7.888427   -0.814471
       118
S1: Total Energy = -6697.11652235
 C          8.660215   -0.836180    0.017410
 C          9.354905   -2.056944    0.067046
 S          9.781241    0.526460   -0.012837
 C         10.752373   -1.871585    0.080763
 C         11.161111   -0.546668    0.042492
 H         11.458550   -2.690975    0.118364
 C         12.482740    0.029349    0.041664
 C         13.697757   -0.744482    0.089268
 C         13.760985    1.981752   -0.009549
 C         14.977620   -0.060344    0.084839
 N         13.798550   -2.075727    0.139924
 C         15.019215    1.376522    0.032605
 N         16.020146   -0.898242    0.132553
 C         16.253014    2.141412    0.024350
 C         17.558964    1.693238    0.069692
 S         16.232666    3.905350   -0.051015
 C         18.541095    2.729254    0.045933
 H         17.803044    0.639978    0.119231
 C         17.963945    3.971781   -0.018490
 H         18.461470    4.932597   -0.049274
 S         15.406505   -2.425157    0.178902
 C          8.737031   -3.429135    0.104238
 H          8.096209   -3.567097    0.983370
 H          8.123603   -3.627345   -0.782896
 H          9.519486   -4.191983    0.142174
 C         20.024960    2.477951    0.087007
 H         20.310625    1.936974    0.997318
 H         20.347876    1.868106   -0.765505
 H         20.587718    3.415777    0.062293
 H         13.696411    3.066932   -0.049885
 N         12.568065    1.359905   -0.005558
 C          7.255651   -0.566922   -0.008356
 S          6.028394   -1.848191    0.005194
 C          6.646407    0.684762   -0.046005
 C          4.738618   -0.667233   -0.039107
 C          5.237802    0.659983   -0.063326
 H          7.228020    1.598864   -0.059028
 C          3.367944   -0.914278   -0.049701
 C          4.315912    1.776942   -0.099439
 C          2.437396    0.156243   -0.083229
 S          2.570399   -2.471596   -0.024937
 C          2.914448    1.525222   -0.109095
 C          4.758679    3.115027   -0.124869
 C          1.109761   -0.308831   -0.086642
 C          0.972218   -1.698454   -0.057858
 C          2.034411    2.625487   -0.143741
 C          3.882146    4.190531   -0.158654
 H          5.825560    3.318382   -0.117957
 H          0.246272    0.344810   -0.111046
 H          0.963279    2.445576   -0.151574
 C          2.482392    3.939100   -0.168550
 C          4.411436    5.603292   -0.184240
 C          1.494801    5.079168   -0.205675
 H          4.078900    6.141750   -1.080777
 H          4.058044    6.181299    0.679080
 H          5.504971    5.615796   -0.171500
 H          0.465439    4.709773   -0.208221
 H          1.612411    5.742502    0.660620
 H          1.631425    5.701494   -1.099207
 C         -0.243532   -2.438220   -0.051299
 S         -1.773790   -1.551526   -0.056818
 C         -0.483382   -3.823795   -0.041097
 C         -2.714390   -3.037869   -0.045681
 C         -1.855102   -4.134803   -0.039122
 C          0.570975   -4.897510   -0.034016
 C         -4.154053   -3.019562   -0.042244
 H         -2.236590   -5.146881   -0.032657
 H          1.211279   -4.836426    0.854341
 H          0.101110   -5.884577   -0.037093
 H          1.223733   -4.836172   -0.913116
 C         -4.882242   -1.812615   -0.038031
 C         -4.954033   -4.214107   -0.041120
 H         -4.336624   -0.869665   -0.038180
 N         -6.206250   -1.685915   -0.032315
 C         -6.398484   -4.092689   -0.036176
 N         -4.515387   -5.477728   -0.044649
 C         -6.994617   -2.786105   -0.030888
 N         -7.048117   -5.265838   -0.036287
 S         -5.875642   -6.449903   -0.042179
 C         -8.410209   -2.558549   -0.022255
 S         -8.998930   -0.905273   -0.010051
 C         -9.474675   -3.451203   -0.020285
 C        -10.677048   -1.447481   -0.001044
 C        -10.749795   -2.848907   -0.008677
 H         -9.319880   -4.522379   -0.026731
 C        -11.716764   -0.456363    0.013949
 C        -12.011792   -3.671683   -0.004747
 S        -13.444213   -0.874979    0.019666
 C        -11.561360    0.919568    0.026558
 H        -12.625859   -3.479626    0.883385
 H        -12.636838   -3.471164   -0.883320
 H        -11.764294   -4.736996   -0.011442
 C        -13.897782    0.810380    0.039099
 C        -12.774478    1.658101    0.040977
 H        -10.581521    1.382406    0.026096
 C        -15.200670    1.343258    0.052516
 C        -12.954660    3.093190    0.056984
 C        -15.406369    2.733450    0.068346
 S        -16.715103    0.462415    0.052461
 C        -14.275861    3.630893    0.070947
 C        -11.864155    3.990239    0.059580
 C        -16.805211    3.056728    0.080192
 C        -17.612968    1.960196    0.073586
 C        -14.427826    5.035807    0.087071
 C        -12.028894    5.365996    0.075385
 H        -10.853942    3.590570    0.048817
 H        -17.195778    4.067527    0.093083
 H        -18.694324    1.930252    0.079762
 H        -15.429871    5.455786    0.097962
 C        -13.348146    5.903659    0.089673
 C        -10.826029    6.277961    0.077386
 C        -13.569658    7.396810    0.107497
 H        -10.820715    6.942686   -0.796155
 H        -10.810062    6.924820    0.964094
 H         -9.895573    5.702834    0.065908
 H        -14.636901    7.637114    0.116373
 H        -13.113201    7.862966    0.990219
 H        -13.123409    7.882535   -0.769862
