        92
S0: Total Energy = -6444.95764965
 C        -18.904722    0.726698   -0.248721
 C        -18.870803   -0.641561   -0.219112
 C        -17.549907   -1.160107   -0.166257
 C        -16.566124   -0.185835   -0.155163
 S        -17.319290    1.412915   -0.212508
 H        -17.317765   -2.214863   -0.136962
 C        -15.121335   -0.367512   -0.105571
 C        -14.479466   -1.664002   -0.058700
 N        -15.121469   -2.832912   -0.055208
 S        -13.988780   -4.019218    0.004814
 N        -12.636579   -3.088805    0.028634
 C        -13.025360   -1.814518   -0.009640
 C        -12.129677   -0.675285   -0.004531
 C        -12.805345    0.529353   -0.050850
 C        -14.214319    0.673670   -0.098031
 F        -12.124289    1.692155   -0.053698
 F        -14.641877    1.950244   -0.137430
 C        -10.683484   -0.793156    0.043334
 C         -9.918553   -1.949611    0.093255
 C         -8.531380   -1.719566    0.136406
 C         -8.175377   -0.378092    0.121092
 S         -9.620118    0.616703    0.050081
 H        -10.361943   -2.934811    0.100515
 C         -6.842218    0.174178    0.148041
 C         -6.394159    1.492656    0.201431
 C         -4.980790    1.578661    0.226793
 C         -4.309449    0.368810    0.192551
 S         -5.478646   -0.940232    0.122459
 H         -4.465496    2.532404    0.279198
 C         -2.882871    0.153369    0.192358
 C         -2.133081   -1.017545    0.280113
 C         -0.737161   -0.765010    0.257767
 C         -0.383253    0.565013    0.152899
 S         -1.825198    1.558989    0.067508
 H         -0.004665   -1.562869    0.328910
 C          0.930621    1.155505    0.109214
 C          1.279027    2.494554    0.089308
 C          2.669724    2.721443    0.049703
 C          3.432540    1.562768    0.038026
 S          2.366190    0.152631    0.072914
 H          3.116246    3.705054    0.033007
 C          4.878862    1.442202    0.003687
 C          5.776094    2.579051   -0.022941
 N          5.390101    3.854908   -0.019585
 S          6.744644    4.781903   -0.055316
 N          7.874642    3.591373   -0.076564
 C          7.230222    2.424813   -0.056300
 C          7.870636    1.124847   -0.065629
 C          6.959138    0.084861   -0.038429
 C          5.552286    0.234273   -0.006536
 F          7.385811   -1.193469   -0.041067
 F          4.867242   -0.925649    0.015163
 C          9.309678    0.940659   -0.096557
 C         10.298705    1.913613   -0.126478
 C         11.608463    1.400599   -0.162233
 C         11.677147    0.014859   -0.160450
 S         10.057870   -0.659332   -0.111353
 H         10.069514    2.969415   -0.128900
 C         12.867192   -0.803117   -0.169086
 C         13.037468   -2.173259   -0.343286
 C         14.405438   -2.555531   -0.300591
 C         15.294884   -1.523103   -0.094213
 S         14.425893   -0.011846    0.071993
 H         14.723718   -3.583879   -0.440173
 C         16.737669   -1.566419   -0.002943
 C         17.640554   -0.525894   -0.029040
 C         19.008103   -0.928865    0.083677
 C         19.124687   -2.289904    0.194490
 S         17.586615   -3.096466    0.173585
 H         17.338167    0.510870   -0.142311
 H        -19.769135    1.376414   -0.289820
 H         20.031897   -2.872383    0.289141
 H        -19.758285   -1.264606   -0.234418
 H         -7.805004   -2.523823    0.182065
 H          0.549161    3.296956    0.109728
 H         12.487405    2.035103   -0.199061
 C         -7.264749    2.721074    0.239621
 H         -7.876053    2.817480   -0.665785
 H         -7.951108    2.710394    1.094551
 H         -6.647603    3.620526    0.319470
 C         -2.686421   -2.413680    0.397309
 H         -3.364056   -2.515812    1.252979
 H         -3.246244   -2.708823   -0.498676
 H         -1.873186   -3.133145    0.528987
 C         11.939073   -3.178333   -0.572114
 H         11.297751   -3.291590    0.310733
 H         11.290837   -2.894511   -1.409135
 H         12.365153   -4.160290   -0.797220
 C         20.168438    0.030393    0.073521
 H         20.195002    0.612223   -0.855934
 H         20.098681    0.746956    0.901052
 H         21.121379   -0.498708    0.166402
        92
T1: Total Energy = -6444.91881018
 C         18.886290    0.792756   -0.003446
 C         18.860147   -0.576213   -0.002734
 C         17.541823   -1.102966   -0.001960
 C         16.551942   -0.134313   -0.002076
 S         17.296737    1.469519   -0.003209
 H         17.315445   -2.159366   -0.001334
 C         15.108124   -0.325081   -0.001419
 C         14.473170   -1.626078   -0.000596
 N         15.122186   -2.791023   -0.000373
 S         13.996090   -3.985031    0.000607
 N         12.637679   -3.062885    0.000740
 C         13.019432   -1.786041    0.000059
 C         12.117517   -0.651717   -0.000074
 C         12.786880    0.558279   -0.000889
 C         14.194866    0.711491   -0.001521
 F         12.098109    1.716126   -0.001146
 F         14.615956    1.990701   -0.002262
 C         10.672252   -0.777470    0.000559
 C          9.913424   -1.941186    0.001581
 C          8.526322   -1.721149    0.001985
 C          8.160607   -0.379643    0.001287
 S          9.601521    0.625607    0.000092
 H         10.364117   -2.923023    0.002029
 C          6.826490    0.158392    0.001366
 C          6.366334    1.479876    0.001358
 C          4.959138    1.556029    0.001531
 C          4.290414    0.335828    0.001657
 S          5.472366   -0.968033    0.001531
 H          4.436430    2.506994    0.001582
 C          2.876320    0.121954    0.001786
 C          2.123678   -1.066092    0.002129
 C          0.740583   -0.824908    0.002102
 C          0.368595    0.520541    0.001738
 S          1.810274    1.530767    0.001420
 H          0.010957   -1.628082    0.002360
 C         -0.931803    1.081280    0.001578
 C         -1.299056    2.435260    0.001514
 C         -2.668498    2.655678    0.001282
 C         -3.450302    1.475679    0.001160
 S         -2.370361    0.063250    0.001363
 H         -3.128910    3.632563    0.001183
 C         -4.863226    1.373941    0.000845
 C         -5.752093    2.524364    0.000492
 N         -5.351833    3.791769    0.000401
 S         -6.713936    4.749302   -0.000031
 N         -7.856155    3.538536   -0.000109
 C         -7.209034    2.375989    0.000202
 C         -7.848117    1.072897    0.000222
 C         -6.922258   -0.008561    0.000518
 C         -5.555916    0.128082    0.000800
 F         -7.394667   -1.275757    0.000532
 F         -4.840021   -1.019377    0.001055
 C         -9.258601    0.891189   -0.000016
 C        -10.257341    1.885373   -0.000141
 C        -11.556909    1.390787   -0.000382
 C        -11.649840   -0.007330   -0.000481
 S        -10.032104   -0.706570   -0.000211
 H        -10.007018    2.935932   -0.000044
 C        -12.844711   -0.788301   -0.000730
 C        -13.041150   -2.177083   -0.000777
 C        -14.410075   -2.525280   -0.000963
 C        -15.291873   -1.458450   -0.001075
 S        -14.402974    0.051088   -0.000928
 H        -14.743439   -3.558205   -0.001049
 C        -16.732517   -1.474804   -0.001298
 C        -17.613015   -0.411332   -0.001685
 C        -18.990446   -0.786799   -0.001812
 C        -19.140689   -2.150516   -0.001544
 S        -17.623435   -2.992961   -0.001098
 H        -17.284339    0.623561   -0.001884
 H         19.747632    1.447843   -0.004107
 H        -20.064086   -2.714982   -0.001574
 H         19.751601   -1.193692   -0.002752
 H          7.804477   -2.530737    0.002827
 H         -0.569116    3.238154    0.001643
 H        -12.429991    2.034750   -0.000473
 C          7.230205    2.713124    0.001224
 H          7.879311    2.757308    0.883758
 H          7.878584    2.757621   -0.881832
 H          6.606994    3.611755    0.001628
 C          2.691339   -2.460383    0.002492
 H          3.312990   -2.648330   -0.880972
 H          3.313296   -2.647753    0.885861
 H          1.883208   -3.196999    0.002867
 C        -11.954464   -3.218632   -0.000649
 H        -11.308666   -3.136201   -0.882926
 H        -11.309292   -3.136617    0.882134
 H        -12.391728   -4.221115   -0.001043
 C        -20.129445    0.197622   -0.002176
 H        -20.092363    0.847650    0.880401
 H        -20.091578    0.847897   -0.884534
 H        -21.095996   -0.314443   -0.002670
        92
S1: Total Energy = -6444.90268841
 C         18.873992    0.738839    0.001161
 C         18.837774   -0.630790    0.000623
 C         17.517129   -1.148042    0.000305
 C         16.532058   -0.171548    0.000594
 S         17.289997    1.427877    0.001282
 H         17.282215   -2.202511   -0.000112
 C         15.090500   -0.352832    0.000407
 C         14.449129   -1.649989    0.000102
 N         15.092588   -2.818834   -0.000024
 S         13.958085   -4.009090   -0.000353
 N         12.602777   -3.075062   -0.000348
 C         12.994415   -1.801458   -0.000089
 C         12.102307   -0.659204    0.000016
 C         12.780765    0.552883    0.000317
 C         14.182592    0.695834    0.000500
 F         12.092764    1.711890    0.000447
 F         14.618449    1.971245    0.000787
 C         10.661916   -0.772278   -0.000151
 C          9.893891   -1.938140   -0.000425
 C          8.514893   -1.713431   -0.000531
 C          8.150764   -0.363587   -0.000344
 S          9.599807    0.636808    0.000004
 H         10.344006   -2.920093   -0.000551
 C          6.827257    0.167914   -0.000368
 C          6.364757    1.499814   -0.000277
 C          4.967544    1.577416   -0.000337
 C          4.290102    0.351345   -0.000477
 S          5.468608   -0.957338   -0.000516
 H          4.444449    2.527899   -0.000286
 C          2.885384    0.149205   -0.000562
 C          2.122408   -1.039078   -0.000755
 C          0.744464   -0.790055   -0.000770
 C          0.380569    0.559559   -0.000592
 S          1.821871    1.564078   -0.000384
 H          0.009190   -1.587734   -0.000937
 C         -0.920742    1.126241   -0.000558
 C         -1.285615    2.473819   -0.000440
 C         -2.664413    2.692035   -0.000396
 C         -3.431995    1.517820   -0.000471
 S         -2.359268    0.111053   -0.000623
 H         -3.127503    3.667681   -0.000309
 C         -4.865187    1.403826   -0.000399
 C         -5.751031    2.547573   -0.000195
 N         -5.350650    3.822114   -0.000131
 S         -6.719432    4.766678    0.000126
 N         -7.860558    3.559062    0.000143
 C         -7.204194    2.394292   -0.000039
 C         -7.835299    1.092552   -0.000076
 C         -6.921152    0.026755   -0.000306
 C         -5.539025    0.171616   -0.000461
 F         -7.375524   -1.248150   -0.000393
 F         -4.829083   -0.979830   -0.000655
 C         -9.262640    0.909210    0.000096
 C        -10.256225    1.892292    0.000370
 C        -11.561421    1.388731    0.000508
 C        -11.644124   -0.003444    0.000347
 S        -10.023710   -0.689459    0.000010
 H        -10.012446    2.944573    0.000471
 C        -12.836267   -0.799621    0.000397
 C        -13.019803   -2.187008    0.000449
 C        -14.387514   -2.548202    0.000450
 C        -15.277967   -1.490129    0.000417
 S        -14.399891    0.026353    0.000413
 H        -14.711228   -3.584324    0.000411
 C        -16.718449   -1.517476    0.000398
 C        -17.608206   -0.461533   -0.000286
 C        -18.982430   -0.848583   -0.000089
 C        -19.121986   -2.213511    0.000756
 S        -17.597378   -3.043289    0.001318
 H        -17.288133    0.576049   -0.000969
 H         19.740577    1.387013    0.001486
 H        -20.040782   -2.785451    0.001073
 H         19.725081   -1.254246    0.000455
 H          7.788931   -2.519313   -0.000761
 H         -0.558472    3.279395   -0.000386
 H        -12.437150    2.029243    0.000735
 C          7.234767    2.727443   -0.000151
 H          7.883195    2.766652    0.882926
 H          7.883318    2.766739   -0.883133
 H          6.616261    3.629023   -0.000148
 C          2.684051   -2.434469   -0.000948
 H          3.305379   -2.623170   -0.884522
 H          3.305083   -2.623527    0.882762
 H          1.873386   -3.167909   -0.001228
 C        -11.924196   -3.219467    0.000483
 H        -11.279007   -3.132144   -0.881933
 H        -11.278813   -3.131868    0.882729
 H        -12.352757   -4.225821    0.000686
 C        -20.129502    0.126407   -0.000747
 H        -20.097325    0.777586    0.881220
 H        -20.097375    0.776343   -0.883633
 H        -21.091917   -0.393469   -0.000353
