        83
S0: Total Energy = -5203.42665337
 C         12.810743   -1.540622    0.609429
 C         12.348957   -0.830877    1.698783
 C         11.135954   -0.140149    1.458048
 C         10.643367   -0.297659    0.177465
 S         11.700080   -1.366327   -0.738417
 H         12.885744   -0.781878    2.640338
 C          9.397796    0.221898   -0.361543
 C          9.064828    0.684542   -1.623458
 C          7.699330    1.124916   -1.720955
 C          7.000457    0.995351   -0.532394
 S          8.016663    0.299255    0.715927
 C          5.629596    1.321434   -0.179720
 C          5.160477    1.778561    1.036795
 S          4.277831    1.046455   -1.273107
 C          3.754896    1.934759    1.091821
 H          5.821619    2.020301    1.861928
 C          3.110080    1.595095   -0.081436
 C          1.700908    1.648265   -0.396729
 C          1.076385    1.536089   -1.623548
 S          0.506046    1.893611    0.866887
 C         -0.331803    1.662733   -1.561158
 H          1.620585    1.394689   -2.551384
 C         -0.822371    1.880653   -0.287945
 C         -2.213307    1.984071    0.117282
 C         -2.831504    2.742868    1.097272
 S         -3.382834    0.993414   -0.734865
 C         -4.254905    2.545984    1.149337
 C         -4.712881    1.638093    0.208906
 C         -6.048824    1.156434   -0.096141
 C         -6.550072    0.795674   -1.332054
 S         -7.246670    0.825244    1.150605
 C         -7.872266    0.291696   -1.294467
 H         -5.982987    0.918292   -2.248480
 C         -8.416077    0.248564   -0.025803
 C         -9.732854   -0.179349    0.389582
 C        -10.375016    0.020610    1.595496
 S        -10.770090   -1.083195   -0.701836
 C        -11.683038   -0.519924    1.642388
 H         -9.928035    0.570320    2.417172
 C        -12.076599   -1.144130    0.475392
 C        -13.322633   -1.848731    0.220085
 C        -14.086940   -1.965702   -0.927446
 S        -14.052639   -2.737714    1.552839
 C        -15.267605   -2.769023   -0.727742
 C        -15.375741   -3.235496    0.553894
 H        -16.165098   -3.850007    0.967309
 H        -12.335275   -0.433367    2.504692
 H         -8.422400   -0.003796   -2.181602
 H         -0.974888    1.621834   -2.433606
 H          3.231956    2.314756    1.963135
 H         10.645985    0.483641    2.197837
 C         14.014545   -2.335434    0.478214
 C         14.638021   -2.788245   -0.665787
 S         14.897481   -2.874330    1.900133
 C         15.813585   -3.550568   -0.410630
 H         14.272823   -2.565281   -1.662812
 C         16.086804   -3.678612    0.923469
 H         16.433100   -3.979179   -1.190836
 H         16.910841   -4.195267    1.396809
 C        -16.276077   -3.052315   -1.808878
 H        -16.736599   -2.129618   -2.184618
 H        -15.814327   -3.552543   -2.669375
 H        -17.078050   -3.696772   -1.437127
 C        -13.781142   -1.316025   -2.251524
 H        -13.076677   -0.487413   -2.147879
 H        -13.348559   -2.030966   -2.964467
 H        -14.695366   -0.922824   -2.710311
 C         -5.130778    3.307573    2.109249
 H         -6.185772    3.245019    1.835293
 H         -5.029597    2.930301    3.135511
 H         -4.857401    4.368530    2.131859
 C         -2.128306    3.722630    1.999567
 H         -2.050934    3.342453    3.026822
 H         -1.117777    3.944613    1.650935
 H         -2.675916    4.670424    2.051539
 C          7.139297    1.709724   -2.990932
 H          6.956591    0.934406   -3.746785
 H          6.196719    2.232754   -2.817664
 H          7.839334    2.427055   -3.433981
 C         10.018903    0.782743   -2.784772
 H         11.056251    0.649091   -2.471883
 H          9.801413    0.027565   -3.551638
 H          9.943693    1.761675   -3.271865
        83
T1: Total Energy = -5203.37809234
 C         13.391592   -0.160744   -0.005180
 C         12.781873   -1.198713    0.672143
 C         11.389705   -1.027926    0.845977
 C         10.891905    0.149674    0.313262
 S         12.199888    1.046288   -0.456955
 H         13.330495   -2.049239    1.062897
 C          9.511110    0.577408    0.272857
 C          8.931144    1.841997    0.248241
 C          7.503792    1.808618    0.203428
 C          6.977339    0.511899    0.217392
 S          8.279989   -0.674671    0.241234
 C          5.629235    0.036721    0.210821
 C          5.208572   -1.300134    0.259274
 S          4.208538    1.092453    0.135633
 C          3.828842   -1.481061    0.235526
 H          5.909622   -2.126162    0.313949
 C          3.094861   -0.283903    0.167415
 C          1.701835   -0.102597    0.128552
 C          0.966201    1.102536    0.061919
 S          0.588371   -1.483708    0.161551
 C         -0.401095    0.935681    0.039357
 H          1.449344    2.073494    0.031463
 C         -0.843523   -0.419566    0.086657
 C         -2.170286   -0.853270    0.076620
 C         -2.745936   -2.166843    0.118338
 S         -3.455994    0.369355   -0.000418
 C         -4.141250   -2.171737    0.087469
 C         -4.724526   -0.867802    0.024341
 C         -6.064710   -0.443057   -0.015377
 C         -6.519188    0.893925   -0.079477
 S         -7.478584   -1.524238    0.013178
 C         -7.902083    1.037638   -0.103316
 H         -5.836957    1.736198   -0.106580
 C         -8.607202   -0.168943   -0.058339
 C        -10.015955   -0.385834   -0.066498
 C        -10.720217   -1.583300    0.011186
 S        -11.146605    0.963858   -0.165886
 C        -12.118481   -1.424100    0.004303
 H        -10.230939   -2.548264    0.089865
 C        -12.544465   -0.106497   -0.078056
 C        -13.907201    0.374365   -0.165622
 C        -14.476920    1.586788    0.195108
 S        -15.122841   -0.708987   -0.841632
 C        -15.892426    1.634784   -0.067682
 C        -16.366761    0.472171   -0.612420
 H        -17.386254    0.244916   -0.896055
 H        -12.812310   -2.254707    0.077460
 H         -8.398488    2.001372   -0.150158
 H         -1.098153    1.764738   -0.010691
 H          3.353345   -2.455305    0.268045
 H         10.764400   -1.736625    1.378055
 C         14.788082    0.018058   -0.338312
 C         15.443235    1.155941   -0.763349
 S         15.917858   -1.326502   -0.239434
 C         16.833179    0.958676   -0.999743
 H         14.944218    2.111433   -0.886358
 C         17.238862   -0.324878   -0.756053
 H         17.503798    1.743823   -1.331440
 H         18.230125   -0.747981   -0.847588
 C        -16.761770    2.826937    0.232905
 H        -16.767097    3.065089    1.304239
 H        -16.412854    3.723951   -0.293502
 H        -17.796279    2.641659   -0.070599
 C        -13.740156    2.742632    0.820411
 H        -12.883246    2.409559    1.412211
 H        -13.363273    3.444580    0.063958
 H        -14.400811    3.310934    1.482853
 C         -4.993462   -3.413225    0.114326
 H         -5.650815   -3.429448    0.991876
 H         -5.633564   -3.477482   -0.773487
 H         -4.392219   -4.322802    0.144235
 C         -1.883967   -3.399302    0.189998
 H         -1.219228   -3.475205   -0.678787
 H         -1.250689   -3.393195    1.085078
 H         -2.477954   -4.313628    0.222666
 C          6.657436    3.054329    0.150896
 H          6.001795    3.058137   -0.728036
 H          6.015033    3.152224    1.034940
 H          7.275120    3.952702    0.093572
 C          9.711880    3.130465    0.313626
 H         10.727157    2.967343    0.680427
 H          9.788665    3.613914   -0.669134
 H          9.233459    3.845564    0.990724
        83
S1: Total Energy = -5203.35541854
 C         13.411519   -0.189780    0.076180
 C         12.724697   -1.390791    0.189607
 C         11.328971   -1.255511    0.182834
 C         10.874094    0.060940    0.063910
 S         12.272532    1.144214   -0.043237
 H         13.227198   -2.348354    0.278872
 C          9.514955    0.496449    0.017243
 C          8.945369    1.781036   -0.056424
 C          7.528176    1.772099   -0.087691
 C          6.973130    0.476069   -0.030978
 S          8.255547   -0.734059    0.051593
 C          5.628348    0.023269   -0.029807
 C          5.193099   -1.314380    0.028574
 S          4.209749    1.087829   -0.098720
 C          3.813532   -1.481556    0.018891
 H          5.886850   -2.146608    0.077402
 C          3.089231   -0.280383   -0.047793
 C          1.692331   -0.085117   -0.072663
 C          0.968248    1.117105   -0.139377
 S          0.572290   -1.453156   -0.016035
 C         -0.410188    0.952006   -0.143467
 H          1.452850    2.086577   -0.184382
 C         -0.847773   -0.387236   -0.081064
 C         -2.190036   -0.834722   -0.060839
 C         -2.749495   -2.134392   -0.018697
 S         -3.470974    0.381068   -0.084890
 C         -4.161631   -2.140587   -0.001431
 C         -4.734522   -0.849044   -0.035373
 C         -6.086031   -0.414934   -0.034070
 C         -6.540353    0.914358   -0.067847
 S         -7.489920   -1.499818    0.012076
 C         -7.927802    1.056033   -0.056531
 H         -5.861802    1.759735   -0.099092
 C         -8.626199   -0.152254   -0.012711
 C        -10.032626   -0.376363    0.009971
 C        -10.731345   -1.580053    0.070827
 S        -11.170468    0.970914   -0.024456
 C        -12.126176   -1.428334    0.094344
 H        -10.236813   -2.544848    0.109155
 C        -12.564980   -0.108317    0.052085
 C        -13.927973    0.359068    0.024268
 C        -14.469535    1.626827    0.217616
 S        -15.203911   -0.815273   -0.308713
 C        -15.903099    1.641620    0.103122
 C        -16.423253    0.404283   -0.170057
 H        -17.464848    0.141412   -0.301191
 H        -12.811082   -2.267420    0.154081
 H         -8.426885    2.019200   -0.078060
 H         -1.103383    1.784662   -0.192467
 H          3.330192   -2.451887    0.059285
 H         10.655118   -2.101053    0.267297
 C         14.829643    0.046380    0.051796
 C         15.515742    1.244935   -0.050526
 S         15.974205   -1.290846    0.158022
 C         16.928747    1.095706   -0.043590
 H         15.015913    2.204773   -0.127692
 C         17.330233   -0.209215    0.063165
 H         17.620879    1.927746   -0.115146
 H         18.336251   -0.605436    0.092120
 C        -16.753498    2.873660    0.269433
 H        -16.643968    3.310529    1.269979
 H        -16.483997    3.652620   -0.454360
 H        -17.811734    2.636726    0.125789
 C        -13.671157    2.865863    0.529470
 H        -12.923160    2.684466    1.309073
 H        -13.135397    3.242732   -0.352074
 H        -14.322267    3.671252    0.879368
 C         -5.005895   -3.387127    0.050173
 H         -5.652351   -3.396527    0.935831
 H         -5.656615   -3.469286   -0.828792
 H         -4.398647   -4.292479    0.087378
 C         -1.891729   -3.372230   -0.000152
 H         -1.225320   -3.410937   -0.870009
 H         -1.259750   -3.412251    0.895587
 H         -2.488915   -4.284979   -0.013624
 C          6.671778    3.008017   -0.175555
 H          6.025773    2.986352   -1.061518
 H          6.018722    3.110812    0.699849
 H          7.270332    3.917806   -0.239200
 C          9.786210    3.031099   -0.090118
 H         10.458409    3.084056    0.774215
 H         10.410445    3.073970   -0.991133
 H          9.176655    3.935678   -0.077253
