        84
S0: Total Energy = -6290.12592973
 C         16.450859    1.152572    0.093041
 C         16.548576   -0.214256    0.039521
 C         15.262297   -0.829842    0.009617
 C         14.199940    0.054458    0.039940
 S         14.814933    1.710507    0.108016
 H         15.118376   -1.900568   -0.033331
 C         12.775380   -0.250292    0.021176
 C         12.244926   -1.596446   -0.035386
 N         12.983828   -2.705786   -0.075259
 S         11.955507   -3.983416   -0.130778
 N         10.528435   -3.172496   -0.106236
 C         10.808233   -1.870169   -0.053852
 C          9.820405   -0.811786   -0.017601
 C         10.390610    0.444952    0.037381
 C         11.783418    0.709445    0.055884
 F          9.613334    1.543735    0.079950
 F         12.100231    2.016929    0.110944
 C          8.386117   -1.048860   -0.036150
 C          7.720621   -2.260274   -0.110697
 C          6.305416   -2.173176   -0.118060
 C          5.862779   -0.857543   -0.042984
 S          7.209298    0.259774    0.045893
 H          8.248401   -3.201621   -0.174898
 C          4.505196   -0.355436   -0.035726
 C          3.366184   -0.968922    0.452592
 C          2.214405   -0.161826    0.287101
 C          2.451063    1.071891   -0.316338
 S          4.139036    1.245950   -0.718861
 H          3.375254   -1.934334    0.941168
 C          1.299299    1.878967   -0.481754
 C          0.160180    1.265639    0.007007
 S          0.526702   -0.335701    0.690378
 H          1.290473    2.844093   -0.970788
 C         17.843434   -0.982529    0.014832
 H         17.918211   -1.663355    0.871514
 H         17.925373   -1.594600   -0.891627
 H         18.704906   -0.308909    0.044604
 C          5.423823   -3.388435   -0.230924
 H          5.079025   -3.734703    0.752351
 H          4.533934   -3.185325   -0.835660
 H          5.970738   -4.216417   -0.692147
 H         17.259516    1.871921    0.125007
 C         -1.197548    1.766629    0.013963
 C         -1.641781    3.082739    0.077258
 S         -2.543028    0.646874   -0.056910
 C         -3.056758    3.168012    0.074695
 C         -0.761422    4.300225    0.174531
 C         -3.721397    1.954813    0.016107
 H         -3.585354    4.109428    0.130672
 H         -0.414124    4.632393   -0.812706
 H         -1.310219    5.134352    0.622169
 H          0.126959    4.106799    0.784713
 C         -5.154675    1.715809    0.006850
 C         -6.143779    2.773624    0.023492
 C         -5.723434    0.456424   -0.019338
 N         -5.865676    4.077191    0.044128
 C         -7.580237    2.498368    0.017355
 C         -7.114442    0.189927   -0.024730
 F         -4.944056   -0.641427   -0.042560
 S         -7.293434    4.887195    0.055312
 N         -8.320442    3.606935    0.034108
 C         -8.108529    1.149925   -0.005039
 F         -7.432403   -1.118314   -0.050855
 C         -9.528882    0.842383   -0.007760
 C        -10.595045    1.724944    0.016739
 S        -10.140345   -0.810091   -0.046948
 C        -11.878723    1.122174    0.020716
 H        -10.452431    2.796161    0.048011
 C        -11.804305   -0.265089   -0.005777
 C        -13.148605    1.928883    0.080976
 C        -12.882333   -1.233456    0.000374
 H        -13.568010    2.103759   -0.918624
 H        -13.918077    1.423350    0.673446
 H        -12.958931    2.909414    0.528436
 C        -14.149629   -1.108940   -0.533369
 S        -12.655268   -2.820815    0.771155
 C        -14.930569   -2.276693   -0.331460
 H        -14.481232   -0.233995   -1.077248
 C        -14.275499   -3.301912    0.345162
 S        -16.555689   -2.760011   -0.752783
 C        -15.060710   -4.475961    0.533224
 C        -16.308436   -4.325732   -0.006234
 H        -14.726470   -5.376167    1.035327
 H        -17.115210   -5.046515   -0.014622
        84
T1: Total Energy = -6290.08457978
 C        -16.339770    1.007819   -1.192845
 C        -16.464230   -0.296851   -0.787910
 C        -15.197412   -0.868374   -0.469398
 C        -14.122788   -0.012317   -0.628963
 S        -14.702063    1.559499   -1.194641
 H        -15.075292   -1.887587   -0.129899
 C        -12.712921   -0.286129   -0.390807
 C        -12.212065   -1.563779    0.071898
 N        -12.969122   -2.630048    0.332630
 S        -11.971933   -3.837365    0.823803
 N        -10.535892   -3.047277    0.723387
 C        -10.788628   -1.808719    0.301165
 C         -9.785411   -0.787316    0.080889
 C        -10.328147    0.405961   -0.359756
 C        -11.706604    0.641532   -0.582264
 F         -9.531306    1.460642   -0.615372
 F        -11.997019    1.884033   -1.012019
 C         -8.366199   -0.995043    0.299287
 C         -7.729364   -2.138296    0.759323
 C         -6.324111   -2.044113    0.873174
 C         -5.848340   -0.788443    0.487588
 S         -7.166249    0.253203   -0.020138
 H         -8.278076   -3.031634    1.022877
 C         -4.498284   -0.294121    0.476163
 C         -3.308765   -1.018010    0.444019
 C         -2.179029   -0.183286    0.428396
 C         -2.462338    1.191291    0.441967
 S         -4.187033    1.460179    0.496021
 H         -3.271764   -2.097137    0.393472
 C         -1.340124    2.027035    0.414820
 C         -0.136789    1.303971    0.379312
 S         -0.457331   -0.456064    0.381416
 H         -1.388199    3.105332    0.410768
 C        -17.767467   -1.044487   -0.687627
 H        -17.768651   -1.929712   -1.335174
 H        -17.947585   -1.393651    0.336380
 H        -18.610982   -0.412516   -0.980550
 C         -5.485630   -3.181560    1.391240
 H         -4.961977   -3.704795    0.580450
 H         -4.726816   -2.834585    2.101123
 H         -6.115223   -3.917607    1.899214
 H        -17.130021    1.683918   -1.494197
 C          1.199142    1.780968    0.341419
 C          1.686301    3.112763    0.391168
 S          2.537905    0.637530    0.221585
 C          3.074581    3.175789    0.335510
 C          0.840244    4.351810    0.500082
 C          3.744360    1.934722    0.241143
 H          3.626616    4.104239    0.363987
 H          0.205964    4.333057    1.394393
 H          1.476662    5.238419    0.560490
 H          0.182941    4.472749   -0.369724
 C          5.138153    1.704776    0.168493
 C          6.130570    2.767046    0.176017
 C          5.708733    0.399061    0.081577
 N          5.852848    4.064422    0.249547
 C          7.565166    2.483443    0.100556
 C          7.053708    0.136583    0.010111
 F          4.886533   -0.673486    0.066048
 S          7.299872    4.890174    0.226450
 N          8.320160    3.578709    0.120215
 C          8.076191    1.128096    0.013949
 F          7.405163   -1.166545   -0.066566
 C          9.462424    0.814404   -0.060408
 C         10.549295    1.703618   -0.078866
 S         10.081609   -0.843661   -0.131394
 C         11.816331    1.110250   -0.155764
 H         10.398543    2.773240   -0.048672
 C         11.748831   -0.292916   -0.200237
 C         13.079559    1.925947   -0.217868
 C         12.815058   -1.248361   -0.304481
 H         13.633024    1.892366    0.729494
 H         13.753502    1.567913   -1.004151
 H         12.844616    2.974296   -0.421635
 C         14.166916   -1.081627   -0.027057
 S         12.472724   -2.913496   -0.845070
 C         14.905363   -2.267395   -0.239901
 H         14.589760   -0.160078    0.347128
 C         14.149033   -3.356200   -0.674358
 S         16.587033   -2.715445   -0.074665
 C         14.900254   -4.546329   -0.879431
 C         16.224911   -4.347990   -0.595524
 H         14.492129   -5.492421   -1.214541
 H         17.027734   -5.070453   -0.659215
        84
S1: Total Energy = -6290.06716981
 C        -16.392948    1.145107   -0.450388
 C        -16.495498   -0.216221   -0.303725
 C        -15.214901   -0.827466   -0.184607
 C        -14.146427    0.053621   -0.239314
 S        -14.757459    1.702526   -0.446464
 H        -15.073174   -1.892069   -0.061016
 C        -12.730217   -0.249457   -0.148724
 C        -12.209799   -1.589123    0.018657
 N        -12.956403   -2.691985    0.107563
 S        -11.933770   -3.969639    0.287820
 N        -10.498946   -3.157995    0.258768
 C        -10.775812   -1.863402    0.107310
 C         -9.787182   -0.806744    0.032847
 C        -10.352821    0.455099   -0.128976
 C        -11.731235    0.715272   -0.214233
 F         -9.560028    1.541721   -0.216112
 F        -12.053190    2.015264   -0.370129
 C         -8.366296   -1.037326    0.117606
 C         -7.702901   -2.253007    0.288704
 C         -6.302439   -2.177846    0.334159
 C         -5.833921   -0.855440    0.194290
 S         -7.182586    0.260874    0.005068
 H         -8.243588   -3.184115    0.382561
 C         -4.499755   -0.360190    0.195612
 C         -3.290635   -1.074693    0.227520
 C         -2.177082   -0.235166    0.208428
 C         -2.471790    1.143173    0.160839
 S         -4.198001    1.399967    0.145228
 H         -3.237300   -2.152649    0.248249
 C         -1.359888    1.983765    0.136136
 C         -0.148638    1.268954    0.164222
 S         -0.451219   -0.492145    0.225449
 H         -1.413976    3.060719    0.090109
 C        -17.793140   -0.979457   -0.271671
 H        -17.840110   -1.717165   -1.081942
 H        -17.908077   -1.528109    0.671030
 H        -18.650900   -0.308750   -0.377341
 C         -5.450331   -3.401891    0.527442
 H         -4.819943   -3.601954   -0.348076
 H         -4.788201   -3.303669    1.395963
 H         -6.081549   -4.279984    0.686341
 H        -17.199432    1.859034   -0.561732
 C          1.183759    1.760080    0.146552
 C          1.654049    3.091421    0.157700
 S          2.536247    0.629238    0.108475
 C          3.052746    3.163080    0.136616
 C          0.800529    4.329135    0.195292
 C          3.721020    1.933667    0.108393
 H          3.596855    4.096690    0.142938
 H          0.139706    4.341283    1.070401
 H          1.431269    5.220543    0.241484
 H          0.169151    4.415307   -0.697770
 C          5.139424    1.701080    0.077643
 C          6.118528    2.766055    0.062252
 C          5.705857    0.417525    0.059180
 N          5.828154    4.069588    0.076674
 C          7.552663    2.490664    0.027690
 C          7.072200    0.156076    0.025690
 F          4.902803   -0.668771    0.072064
 S          7.270151    4.893631    0.048719
 N          8.303871    3.596092    0.017186
 C          8.071582    1.140123    0.007271
 F          7.415778   -1.151343    0.012515
 C          9.477848    0.834674   -0.029421
 C         10.550023    1.724548   -0.070022
 S         10.101850   -0.818602   -0.016329
 C         11.827965    1.131937   -0.102915
 H         10.395208    2.794064   -0.089531
 C         11.765338   -0.265564   -0.085214
 C         13.088943    1.949585   -0.185797
 C         12.840781   -1.221169   -0.129312
 H         13.597190    2.015298    0.785193
 H         13.801667    1.521613   -0.899236
 H         12.859869    2.971174   -0.502479
 C         14.170383   -1.049848    0.229476
 S         12.538281   -2.882596   -0.701123
 C         14.926965   -2.231629    0.053303
 H         14.562487   -0.128942    0.638592
 C         14.203150   -3.320917   -0.431734
 S         16.597394   -2.674124    0.317766
 C         14.970541   -4.507166   -0.596468
 C         16.274892   -4.305678   -0.232046
 H         14.587229   -5.453011   -0.960559
 H         17.083208   -5.024572   -0.250888
