        92
S0: Total Energy = -7364.13724301
 C         17.320275    1.032483    2.118900
 C         17.647535   -0.040713    1.330141
 C         16.488254   -0.638102    0.752971
 C         15.295256   -0.029337    1.096501
 S         15.619360    1.333687    2.174592
 H         16.527869   -1.497646    0.098280
 C         13.947778   -0.391935    0.678459
 C         13.654435   -1.500967   -0.205448
 N         14.567814   -2.314624   -0.736318
 S         13.774175   -3.412009   -1.662692
 N         12.235359   -2.892846   -1.423607
 C         12.289959   -1.839698   -0.608108
 C         11.141244   -1.087193   -0.149056
 C         11.488199   -0.046098    0.689389
 C         12.811205    0.281370    1.080062
 F         10.538357    0.754173    1.209147
 F         12.900831    1.340860    1.905936
 C          9.772470   -1.395371   -0.531171
 C          9.325227   -2.400002   -1.371862
 C          7.921073   -2.449019   -1.561455
 C          7.263929   -1.456121   -0.844154
 S          8.394162   -0.476980    0.067933
 H         10.004738   -3.086444   -1.857417
 C          5.847773   -1.165728   -0.787463
 C          4.779059   -2.020615   -0.951434
 C          3.524712   -1.375110   -0.815454
 C          3.579365   -0.021106   -0.534066
 S          5.271257    0.468006   -0.482298
 H          4.872173   -3.084722   -1.120565
 C          2.557012    0.971124   -0.299347
 C          2.746276    2.248295    0.203234
 C          1.564531    3.014186    0.295593
 C          0.433522    2.344145   -0.137759
 S          0.857815    0.726804   -0.680526
 H          3.715244    2.617949    0.521502
 H          1.538608    4.013051    0.712066
 C         19.049292   -0.537455    1.093830
 H         19.163871   -1.576732    1.425117
 H         19.306883   -0.508419    0.028099
 H         19.781810    0.070065    1.633387
 C          7.264910   -3.455632   -2.468451
 H          6.882258   -4.319016   -1.908470
 H          6.420946   -3.018959   -3.012543
 H          7.983679   -3.836466   -3.200134
 C         -0.938887    2.801571   -0.168535
 C         -1.420598    4.099853   -0.301015
 C         -2.836808    4.144859   -0.303896
 C         -3.467132    2.917874   -0.181274
 S         -2.252198    1.649448   -0.040608
 H         -3.391640    5.066823   -0.408382
 C         -4.892743    2.640197   -0.157407
 C         -5.910879    3.668158   -0.229285
 N         -5.668807    4.975753   -0.321522
 S         -7.118000    5.744545   -0.374890
 N         -8.109622    4.439717   -0.281970
 C         -7.339051    3.354586   -0.205398
 C         -7.829338    1.995534   -0.107870
 C         -6.809546    1.065079   -0.041220
 C         -5.426378    1.368386   -0.064898
 F         -7.092487   -0.247991    0.051204
 F         -4.617247    0.295154    0.013614
 C         -9.240853    1.649999   -0.082206
 C        -10.330656    2.503044   -0.119333
 C        -11.597245    1.867641   -0.075178
 C        -11.483605    0.484239   -0.005730
 S         -9.805635   -0.016933   -0.005293
 H        -10.216877    3.577147   -0.164792
 C        -12.534216   -0.508689    0.069017
 C        -13.818420   -0.450760   -0.426631
 C        -14.565611   -1.629498   -0.172426
 C        -13.891070   -2.625864    0.507187
 S        -12.272626   -2.045315    0.883996
 H        -14.214192    0.380447   -0.994306
 C        -14.270733   -3.959631    0.925367
 C        -13.416372   -4.980003    1.301447
 C        -14.084159   -6.163749    1.714601
 C        -15.446905   -6.049516    1.655500
 S        -15.941590   -4.488821    1.088853
 H        -12.336254   -4.885086    1.267409
 H        -13.570531   -7.064264    2.032380
 C         -0.575433    5.335610   -0.460737
 H         -1.151774    6.133841   -0.938132
 H         -0.227770    5.719516    0.507334
 H          0.311827    5.140466   -1.071971
 C        -12.888659    2.641520   -0.074184
 H        -13.323984    2.707398   -1.079950
 H        -13.637064    2.176245    0.575696
 H        -12.721167    3.665059    0.274350
 H         17.992904    1.671021    2.677663
 H        -16.195592   -6.793401    1.893585
Cl          2.043978   -2.291558   -0.966030
Cl        -16.212787   -1.766889   -0.745084
        92
T1: Total Energy = -7364.09636307
 C         17.410523    1.421937    1.037245
 C         17.678846    0.143603    0.618351
 C         16.480849   -0.574792    0.332470
 C         15.316607    0.145010    0.530340
 S         15.719260    1.772409    1.091657
 H         16.471936   -1.599693   -0.011738
 C         13.943201   -0.295479    0.330698
 C         13.585972   -1.621748   -0.128847
 N         14.457633   -2.587591   -0.420975
 S         13.598803   -3.903082   -0.894409
 N         12.081984   -3.292629   -0.745878
 C         12.196328   -2.034942   -0.319483
 C         11.085006   -1.143327   -0.061144
 C         11.492441    0.103359    0.374059
 C         12.839267    0.502739    0.559345
 F         10.582769    1.053022    0.662041
 F         12.989836    1.768801    0.991654
 C          9.693614   -1.520171   -0.241345
 C          9.186578   -2.729778   -0.688469
 C          7.775191   -2.802898   -0.763719
 C          7.168395   -1.615062   -0.360221
 S          8.363111   -0.424369    0.117294
 H          9.830172   -3.551396   -0.970136
 C          5.765636   -1.286039   -0.312933
 C          4.675024   -2.131210   -0.211073
 C          3.441659   -1.447688   -0.178955
 C          3.522924   -0.059328   -0.246596
 S          5.226579    0.387604   -0.384485
 H          4.746246   -3.205928   -0.120076
 C          2.529248    0.968667   -0.231515
 C          2.763601    2.347092   -0.253196
 C          1.611174    3.132014   -0.243623
 C          0.417801    2.392033   -0.214211
 S          0.795329    0.663824   -0.196891
 H          3.762026    2.770480   -0.271864
 H          1.642282    4.211471   -0.254862
 C         19.058915   -0.441235    0.473928
 H         19.186349   -1.321962    1.115030
 H         19.248323   -0.762791   -0.557406
 H         19.828820    0.286783    0.745871
 C          7.059904   -4.030555   -1.260645
 H          6.657567   -4.629899   -0.433474
 H          6.221583   -3.772830   -1.916664
 H          7.746630   -4.671097   -1.821424
 C         -0.928451    2.837771   -0.195545
 C         -1.442837    4.160711   -0.207654
 C         -2.832768    4.193117   -0.183288
 C         -3.477571    2.935487   -0.151769
 S         -2.244906    1.663265   -0.152975
 H         -3.403432    5.110676   -0.188093
 C         -4.867688    2.674622   -0.123852
 C         -5.882726    3.715420   -0.122307
 N         -5.632446    5.020162   -0.144078
 S         -7.095963    5.813337   -0.132599
 N         -8.089244    4.479375   -0.099097
 C         -7.312468    3.400018   -0.095881
 C         -7.797068    2.031661   -0.069103
 C         -6.753666    1.063273   -0.070372
 C         -5.412567    1.356310   -0.096189
 F         -7.077906   -0.248810   -0.046942
 F         -4.569527    0.300821   -0.094371
 C         -9.176611    1.687397   -0.043344
 C        -10.283632    2.553236   -0.031165
 C        -11.537870    1.932675   -0.008495
 C        -11.440807    0.528775   -0.001250
 S         -9.760127    0.015227   -0.035506
 H        -10.155416    3.626225   -0.029748
 C        -12.486085   -0.448623    0.045738
 C        -13.846922   -0.301508   -0.182494
 C        -14.565922   -1.509266   -0.060225
 C        -13.811312   -2.629567    0.256665
 S        -12.130736   -2.132599    0.436378
 H        -14.322030    0.626665   -0.463799
 C        -14.154460   -4.017695    0.450702
 C        -13.267934   -5.071042    0.610007
 C        -13.897417   -6.325462    0.813198
 C        -15.264401   -6.237202    0.810193
 S        -15.810111   -4.613776    0.555445
 H        -12.191065   -4.945840    0.572638
 H        -13.356037   -7.254822    0.950078
 C         -0.620609    5.419992   -0.243268
 H         -1.273890    6.296351   -0.248125
 H          0.038513    5.499339    0.629593
 H          0.009909    5.467917   -1.139226
 C        -12.819545    2.720075    0.032916
 H        -13.371260    2.649224   -0.913143
 H        -13.485519    2.367921    0.828951
 H        -12.608701    3.777971    0.211010
 H         18.122426    2.186961    1.320678
 H        -15.989531   -7.030826    0.932551
Cl          1.946687   -2.336217   -0.036584
Cl        -16.293274   -1.531683   -0.328856
        92
S1: Total Energy = -7364.07923052
 C         17.401022    1.595576    0.277419
 C         17.667592    0.255703    0.144554
 C         16.469505   -0.510492    0.060946
 C         15.302485    0.232793    0.128835
 S         15.709087    1.946903    0.302896
 H         16.458214   -1.586173   -0.046813
 C         13.931679   -0.243460    0.073901
 C         13.575912   -1.639011   -0.065773
 N         14.449590   -2.643190   -0.161664
 S         13.588278   -4.038101   -0.303679
 N         12.066394   -3.409150   -0.247704
 C         12.184501   -2.088553   -0.116307
 C         11.074884   -1.160910   -0.030277
 C         11.484814    0.161574    0.100757
 C         12.823777    0.590715    0.149917
 F         10.567733    1.145383    0.192593
 F         12.984965    1.922738    0.281661
 C          9.690515   -1.566651   -0.076427
 C          9.177222   -2.856552   -0.198603
 C          7.775219   -2.951622   -0.215546
 C          7.155696   -1.693848   -0.103975
 S          8.359855   -0.417918    0.025443
 H          9.823931   -3.718940   -0.277373
 C          5.768300   -1.363578   -0.092626
 C          4.653568   -2.204980   -0.097058
 C          3.435320   -1.518631   -0.076828
 C          3.526321   -0.118501   -0.054811
 S          5.240557    0.319867   -0.067253
 H          4.705856   -3.283031   -0.102634
 C          2.544784    0.902863   -0.030206
 C          2.788853    2.286641   -0.000114
 C          1.645681    3.076184    0.015975
 C          0.444621    2.343440   -0.001048
 S          0.804609    0.613760   -0.037335
 H          3.790603    2.702018    0.010323
 H          1.682657    4.155152    0.039455
 C         19.048441   -0.342679    0.092395
 H         19.202437   -1.058362    0.909139
 H         19.210996   -0.885422   -0.846731
 H         19.819101    0.429675    0.172231
 C          7.071805   -4.274286   -0.350596
 H          6.475453   -4.510970    0.539391
 H          6.396636   -4.290100   -1.214546
 H          7.800644   -5.078198   -0.482360
 C         -0.898139    2.804816    0.007268
 C         -1.396018    4.126270    0.036967
 C         -2.795709    4.168783    0.035014
 C         -3.438664    2.925688    0.004682
 S         -2.226571    1.646167   -0.022329
 H         -3.358201    5.091255    0.055326
 C         -4.851515    2.663823   -0.005158
 C         -5.854118    3.707407    0.012963
 N         -5.592899    5.016057    0.040786
 S         -7.050192    5.808873    0.051671
 N         -8.055745    4.491447    0.020806
 C         -7.283334    3.402282    0.001450
 C         -7.774854    2.041118   -0.028055
 C         -6.753758    1.079582   -0.044307
 C         -5.392488    1.369519   -0.034511
 F         -7.069708   -0.234122   -0.073740
 F         -4.568092    0.300203   -0.054364
 C         -9.173470    1.706439   -0.039050
 C        -10.265961    2.573693   -0.013775
 C        -11.530209    1.955738   -0.035056
 C        -11.437211    0.558853   -0.078776
 S         -9.760459    0.041540   -0.104498
 H        -10.134660    3.645610    0.030152
 C        -12.490502   -0.416976   -0.085920
 C        -13.831268   -0.264283   -0.399844
 C        -14.564859   -1.467444   -0.307947
 C        -13.838388   -2.587676    0.067504
 S        -12.169969   -2.095968    0.348297
 H        -14.279447    0.663160   -0.725919
 C        -14.200645   -3.971841    0.253727
 C        -13.331330   -5.030335    0.467026
 C        -13.979909   -6.278132    0.648643
 C        -15.344492   -6.180362    0.575511
 S        -15.864170   -4.555311    0.279327
 H        -12.253053   -4.913025    0.482667
 H        -13.453319   -7.210242    0.820351
 C         -0.568036    5.381615    0.068220
 H         -1.217341    6.260626    0.088471
 H          0.075996    5.422250    0.955019
 H          0.078297    5.464861   -0.813933
 C        -12.809583    2.746537    0.017203
 H        -13.317144    2.764546   -0.955955
 H        -13.513799    2.330013    0.746134
 H        -12.604148    3.783426    0.297330
 H         18.114957    2.405226    0.362569
 H        -16.080745   -6.967892    0.666976
Cl          1.927471   -2.391551   -0.073179
Cl        -16.271832   -1.484187   -0.685673
