       120
S0: Total Energy = -6167.44203803
 C         -6.517559    1.863318   -0.616228
 C         -7.317945    3.062526   -0.700228
 N         -6.851567    4.295107   -0.922960
 S         -8.141073    5.311312   -0.929654
 N         -9.340475    4.226022   -0.648869
 C         -8.769899    3.022447   -0.538557
 C         -9.465923    1.781806   -0.288696
 C         -8.643592    0.664382   -0.215394
 C         -7.241876    0.702681   -0.374546
 C        -10.909479    1.703690   -0.126965
 C        -11.847660    2.719956   -0.074308
 C        -13.171328    2.261080    0.093441
 C        -13.298954    0.883929    0.174391
 S        -11.712416    0.143658    0.014228
 H        -11.580830    3.763879   -0.161718
 H        -14.017490    2.937017    0.136283
 C        -14.536020    0.133457    0.393383
 C        -15.692869    0.816973    0.816380
 C        -14.654937   -1.264664    0.203692
 C        -16.912084    0.176739    1.013535
 H        -15.620560    1.878029    1.010888
 C        -15.874629   -1.905324    0.405192
 C        -17.037706   -1.216561    0.794150
 H        -15.932433   -2.977621    0.278081
 O        -13.518522   -1.922608   -0.169923
 O        -18.039339    0.825633    1.430790
 C        -18.295341   -1.955861    0.945204
 C        -18.569395   -3.222953    0.463356
 S        -19.689508   -1.359830    1.842231
 C        -19.855189   -3.715317    0.815066
 H        -17.873068   -3.785337   -0.148296
 C        -20.571290   -2.824320    1.567993
 H        -20.230833   -4.686372    0.510740
 C        -17.984073    2.222610    1.689218
 H        -17.270601    2.453555    2.489917
 H        -17.715464    2.784887    0.786335
 H        -18.989115    2.504422    2.006071
 C        -13.559430   -3.329778   -0.370902
 H        -13.834195   -3.857382    0.550713
 H        -14.261689   -3.597648   -1.169826
 H        -12.548724   -3.615400   -0.665434
 H        -21.575471   -2.930281    1.957365
 C         -5.070586    1.867296   -0.766329
 S         -4.139014    0.396181   -0.513951
 C         -4.224091    2.903670   -1.121215
 C         -2.617691    1.200322   -0.877484
 C         -2.865969    2.529049   -1.184525
 H         -4.582395    3.900781   -1.335659
 C         -1.310789    0.546569   -0.822104
 H         -2.087389    3.227438   -1.468379
 C         -1.132483   -0.854910   -0.705939
 C         -0.141367    1.329235   -0.887426
 C          0.143487   -1.408103   -0.685738
 O         -2.270895   -1.601207   -0.608888
 C          1.134436    0.776022   -0.869062
 H         -0.243452    2.404141   -0.938338
 C          1.312100   -0.627464   -0.780020
 H          0.247276   -2.478559   -0.576332
 C         -2.173274   -3.014369   -0.480803
 O          2.273680    1.525165   -0.926640
 C          2.618001   -1.285429   -0.783822
 H         -1.675898   -3.459395   -1.351169
 H         -1.636087   -3.296074    0.433049
 H         -3.200399   -3.377181   -0.424896
 C          2.176737    2.941690   -1.010112
 C          2.859907   -2.643245   -0.920578
 S          4.146776   -0.443345   -0.568745
 H          1.646431    3.251336   -1.918929
 H          1.672625    3.359806   -0.130290
 H          3.204165    3.306029   -1.047463
 C          4.219749   -3.009216   -0.842014
 H          2.074798   -3.370385   -1.092278
 C          5.073447   -1.937594   -0.642828
 H          4.574124   -4.026240   -0.934582
 C          6.522730   -1.917278   -0.518770
 C          7.334530   -3.109682   -0.590708
 C          7.239597   -0.744170   -0.317992
 C          8.789260   -3.050422   -0.460768
 N          6.877757   -4.352016   -0.776022
 C          8.643793   -0.686964   -0.192290
 C          9.477010   -1.797053   -0.254876
 N          9.370367   -4.250424   -0.553308
 S          8.177765   -5.354639   -0.784512
 C         10.922154   -1.699914   -0.120520
 S         11.698794   -0.135136    0.096120
 C         11.880989   -2.697723   -0.154433
 C         13.303364   -0.850115    0.165326
 C         13.199996   -2.222137    0.003389
 H         11.631666   -3.739872   -0.297017
 C         14.529283   -0.087764    0.404683
 H         14.059738   -2.881717   -0.019206
 C         14.614654    1.321653    0.298780
 C         15.712950   -0.771415    0.745382
 C         15.825254    1.975773    0.511355
 O         13.461634    1.973668   -0.031926
 C         16.921716   -0.116912    0.959178
 H         15.669834   -1.845047    0.865800
 C         17.005734    1.292826    0.855458
 H         15.871523    3.049062    0.387253
 C         13.465447    3.391973   -0.134561
 O         18.077375   -0.767224    1.287020
 C         18.233046    2.056449    1.103657
 H         13.755167    3.860141    0.814196
 H         14.137814    3.732303   -0.931581
 H         12.440627    3.672850   -0.380995
 C         18.076124   -2.185899    1.380266
 C         18.326591    3.417931    1.327717
 S         19.849404    1.355873    1.091904
 H         17.405385   -2.533140    2.175882
 H         17.785872   -2.648794    0.428954
 H         19.101711   -2.466893    1.623480
 C         19.657422    3.895745    1.469486
 H         17.459799    4.063857    1.409245
 C         20.588674    2.899069    1.355451
 H         19.906009    4.934637    1.658113
 H         21.665213    2.974657    1.436518
 H         -9.088317   -0.307257   -0.022089
 H          6.703736    0.197825   -0.249505
 H          9.081348    0.294544   -0.036188
 H         -6.714670   -0.243913   -0.302286
       120
T1: Total Energy = -6167.40247802
 C         -6.494616    1.932304    0.047946
 C         -7.295137    3.134776    0.061484
 N         -6.822847    4.383894    0.108807
 S         -8.116133    5.396192    0.106483
 N         -9.324822    4.286632    0.045254
 C         -8.755151    3.077966    0.023845
 C         -9.459549    1.817797   -0.028536
 C         -8.636173    0.697025   -0.036748
 C         -7.228288    0.751493   -0.000511
 C        -10.909246    1.723436   -0.067987
 C        -11.858337    2.730436   -0.124213
 C        -13.185628    2.256345   -0.166249
 C        -13.307634    0.875704   -0.140606
 S        -11.705740    0.153585   -0.078273
 H        -11.594639    3.778632   -0.142191
 H        -14.035872    2.925198   -0.231072
 C        -14.553272    0.108463   -0.133266
 C        -15.776440    0.776022    0.076632
 C        -14.617956   -1.292869   -0.328045
 C        -17.001529    0.117649    0.067340
 H        -15.756065    1.839956    0.267006
 C        -15.844544   -1.951805   -0.332791
 C        -17.066917   -1.279422   -0.155821
 H        -15.863918   -3.025842   -0.456770
 O        -13.425428   -1.935714   -0.494424
 O        -18.193752    0.750914    0.275017
 C        -18.320512   -2.037974   -0.215198
 C        -18.489972   -3.310251   -0.730362
 S        -19.853821   -1.463315    0.434239
 C        -19.808371   -3.823075   -0.595683
 H        -17.692355   -3.862021   -1.214798
 C        -20.654007   -2.942651    0.023575
 H        -20.112527   -4.800591   -0.954297
 C        -18.205663    2.150914    0.522674
 H        -17.647509    2.400989    1.433381
 H        -17.791271    2.709478   -0.325734
 H        -19.254836    2.418537    0.654976
 C        -13.410257   -3.344637   -0.687668
 H        -13.833069   -3.870974    0.176790
 H        -13.958934   -3.628073   -1.594134
 H        -12.359665   -3.615788   -0.799669
 H        -21.707261   -3.064385    0.240531
 C         -5.042801    1.948403    0.079702
 S         -4.128093    0.445712    0.071793
 C         -4.173159    3.028253    0.119567
 C         -2.583046    1.290241    0.115063
 C         -2.815611    2.660669    0.139003
 H         -4.518298    4.052480    0.135050
 C         -1.287146    0.627476    0.116646
 H         -2.022521    3.398022    0.174313
 C         -1.118596   -0.785564    0.140311
 C         -0.106033    1.399875    0.094223
 C          0.146597   -1.351766    0.147339
 O         -2.265170   -1.522253    0.154809
 C          1.161356    0.835432    0.100499
 H         -0.193463    2.476460    0.066239
 C          1.332319   -0.579225    0.129972
 H          0.231959   -2.428544    0.164573
 C         -2.187734   -2.942978    0.177146
 O          2.304956    1.573299    0.077754
 C          2.620683   -1.234210    0.141776
 H         -1.677327   -3.326954   -0.714288
 H         -1.673348   -3.298340    1.078096
 H         -3.220171   -3.294268    0.185173
 C          2.227381    2.994389    0.049157
 C          2.850819   -2.618598    0.191422
 S          4.169672   -0.393516    0.092369
 H          1.711058    3.345129   -0.852343
 H          1.718820    3.381412    0.940147
 H          3.259880    3.345101    0.037553
 C          4.188617   -2.995554    0.189313
 H          2.049650   -3.346804    0.231228
 C          5.085889   -1.910456    0.136547
 H          4.535761   -4.018336    0.224669
 C          6.502963   -1.915400    0.119025
 C          7.291567   -3.129592    0.160767
 C          7.253855   -0.692128    0.058046
 C          8.751974   -3.079470    0.143130
 N          6.800560   -4.366088    0.217771
 C          8.621859   -0.646427    0.040221
 C          9.454367   -1.815516    0.081675
 N          9.327663   -4.280099    0.187578
 S          8.102010   -5.415086    0.248202
 C         10.870390   -1.715216    0.063213
 S         11.679909   -0.141219   -0.024145
 C         11.838445   -2.734841    0.104845
 C         13.282229   -0.873595    0.000602
 C         13.149613   -2.266906    0.070662
 H         11.563293   -3.778518    0.158401
 C         14.524973   -0.127524   -0.040572
 H         13.999212   -2.938742    0.095947
 C         14.594501    1.290155   -0.130224
 C         15.760071   -0.815131    0.001006
 C         15.822464    1.941194   -0.169406
 O         13.402747    1.946568   -0.186026
 C         16.983940   -0.162544   -0.035751
 H         15.748839   -1.893408    0.067540
 C         17.049431    1.253976   -0.112096
 H         15.840768    3.017628   -0.267792
 C         13.383117    3.366682   -0.278350
 O         18.181678   -0.815025    0.000208
 C         18.301349    2.010997   -0.123458
 H         13.868468    3.827596    0.590234
 H         13.869570    3.711309   -1.198699
 H         12.329025    3.645642   -0.297475
 C         18.202371   -2.236123    0.059158
 C         18.442486    3.376061    0.063489
 S         19.883820    1.301347   -0.439821
 H         17.721131   -2.603324    0.973871
 H         17.712565   -2.678835   -0.816739
 H         19.256566   -2.515761    0.066571
 C         19.776176    3.846464   -0.057483
 H         17.611446    4.029783    0.301860
 C         20.664259    2.842124   -0.337682
 H         20.060624    4.885664    0.067391
 H         21.736204    2.913276   -0.468581
 H         -9.087398   -0.289804   -0.077477
 H          6.711602    0.247581    0.023826
 H          9.098648    0.327690   -0.006584
 H         -6.701195   -0.197763   -0.014705
       120
S1: Total Energy = -6167.38498980
 C         -6.501152    1.906918    0.025381
 C         -7.291967    3.116563    0.037353
 N         -6.807021    4.361769    0.056759
 S         -8.104264    5.390869    0.064493
 N         -9.324108    4.273295    0.043169
 C         -8.751532    3.064111    0.029385
 C         -9.454834    1.803817    0.007724
 C         -8.633638    0.662530   -0.003575
 C         -7.241184    0.710341    0.004840
 C        -10.893184    1.710855   -0.001528
 C        -11.847284    2.726050    0.013906
 C        -13.169317    2.259216   -0.002942
 C        -13.301730    0.872200   -0.032082
 S        -11.699492    0.142015   -0.043395
 H        -11.574767    3.771755    0.034332
 H        -14.016335    2.935014   -0.000637
 C        -14.546355    0.119487   -0.046344
 C        -15.779595    0.801941    0.044791
 C        -14.614430   -1.296486   -0.144852
 C        -17.003727    0.147043    0.024873
 H        -15.767948    1.878336    0.138441
 C        -15.841523   -1.950642   -0.163263
 C        -17.069288   -1.265919   -0.093915
 H        -15.857573   -3.030415   -0.213868
 O        -13.421441   -1.951755   -0.208505
 O        -18.200566    0.795864    0.117223
 C        -18.321186   -2.020679   -0.152858
 C        -18.467872   -3.351268   -0.509158
 S        -19.897169   -1.358939    0.280323
 C        -19.799637   -3.834567   -0.424791
 H        -17.642292   -3.968938   -0.843350
 C        -20.681571   -2.874928   -0.003593
 H        -20.087392   -4.849959   -0.675194
 C        -18.220432    2.210869    0.260428
 H        -17.705983    2.526293    1.176376
 H        -17.763906    2.705071   -0.605862
 H        -19.274001    2.486377    0.321646
 C        -13.401691   -3.370433   -0.315056
 H        -13.865797   -3.841608    0.559760
 H        -13.909018   -3.707163   -1.227158
 H        -12.347887   -3.647617   -0.361053
 H        -21.751052   -2.963338    0.136703
 C         -5.064240    1.913266    0.033801
 S         -4.149448    0.405237    0.031175
 C         -4.182100    2.999409    0.045058
 C         -2.599484    1.250141    0.042759
 C         -2.836722    2.632194    0.049489
 H         -4.532432    4.021753    0.049855
 C         -1.314069    0.603281    0.044459
 H         -2.041177    3.367471    0.058897
 C         -1.135878   -0.817216    0.049833
 C         -0.128012    1.379980    0.041130
 C          0.127821   -1.378711    0.054777
 O         -2.278662   -1.552745    0.049671
 C          1.135686    0.818475    0.044963
 H         -0.216748    2.456492    0.034080
 C          1.313869   -0.602007    0.053775
 H          0.216564   -2.455237    0.057983
 C         -2.203143   -2.975025    0.056175
 O          2.278490    1.553969    0.040951
 C          2.599275   -1.248851    0.061882
 H         -1.688970   -3.347174   -0.837709
 H         -1.692568   -3.339115    0.955422
 H         -3.236099   -3.324101    0.055680
 C          2.202986    2.976241    0.033395
 C          2.836468   -2.630732    0.084651
 S          4.149282   -0.404141    0.043171
 H          1.691089    3.339683   -0.865369
 H          1.690139    3.349059    0.927758
 H          3.235946    3.325302    0.032129
 C          4.181851   -2.997982    0.086435
 H          2.040904   -3.365860    0.101465
 C          5.064028   -1.912050    0.064150
 H          4.532154   -4.020204    0.103514
 C          6.500968   -1.905819    0.058068
 C          7.291706   -3.115259    0.085372
 C          7.241076   -0.709575    0.025096
 C          8.751290   -3.062922    0.079695
 N          6.806674   -4.360160    0.117978
 C          8.633554   -0.661876    0.018936
 C          9.454677   -1.802964    0.045130
 N          9.323789   -4.271880    0.108399
 S          8.103865   -5.389124    0.140031
 C         10.893057   -1.710131    0.038117
 S         11.699541   -0.141993   -0.021742
 C         11.847070   -2.725016    0.069640
 C         13.301798   -0.871935    0.003557
 C         13.169155   -2.258441    0.050434
 H         11.574491   -3.770340    0.103972
 C         14.546377   -0.119137   -0.013807
 H         14.015995   -2.934238    0.066863
 C         14.613962    1.296900   -0.111341
 C         15.780387   -0.802507    0.059426
 C         15.840952    1.951293   -0.132741
 O         13.421223    1.950570   -0.193400
 C         17.004275   -0.147186    0.040382
 H         15.769579   -1.879992    0.139678
 C         17.068460    1.268059   -0.047670
 H         15.858089    3.027022   -0.239143
 C         13.400963    3.369788   -0.292457
 O         18.202098   -0.797500    0.107042
 C         18.318673    2.027971   -0.043227
 H         13.870243    3.835999    0.582271
 H         13.902947    3.711626   -1.205601
 H         12.346939    3.647205   -0.331482
 C         18.223966   -2.217984    0.176639
 C         18.453958    3.395527    0.130424
 S         19.908571    1.318078   -0.320902
 H         17.726084   -2.579620    1.084638
 H         17.751533   -2.667964   -0.705102
 H         19.278314   -2.495727    0.206092
 C         19.788824    3.867197    0.029562
 H         17.617303    4.050356    0.344855
 C         20.684281    2.861647   -0.221602
 H         20.068808    4.908433    0.147682
 H         21.758445    2.933556   -0.332362
 H         -9.098175   -0.318793   -0.019154
 H          6.709826    0.237168    0.002616
 H          9.098160    0.319197   -0.006928
 H         -6.709885   -0.236581   -0.005716
