        82
S0: Total Energy = -5327.21607124
 C         14.887402    0.790143    0.273959
 C         14.242010    1.880796   -0.248726
 C         12.850947    1.659425   -0.396776
 C         12.430151    0.399671    0.006541
 S         13.815593   -0.532709    0.566769
 H         15.945463    0.672703    0.470615
 H         14.739579    2.802313   -0.529751
 C         11.042270   -0.028980    0.051470
 C         10.390365   -1.264079    0.018543
 C          8.966970   -1.151974    0.006486
 C          8.498309    0.136593    0.050066
 S          9.845069    1.258040    0.123865
 C          7.133036    0.611121    0.053175
 C          6.663193    1.897508   -0.022237
 S          5.788439   -0.510459    0.151463
 C          5.240700    2.011341    0.000807
 H          7.306556    2.764463   -0.102898
 C          4.586772    0.778704    0.114116
 C          3.205413    0.358439    0.230349
 C          2.800456   -0.899946    0.664797
 S          1.792502    1.299822   -0.240876
 C          1.412428   -1.115643    0.616545
 H          3.496471   -1.646010    1.032186
 C          0.708471   -0.022232    0.139533
 C         -0.718491    0.123940   -0.025532
 C         -1.435735    1.262531   -0.353711
 S         -1.783070   -1.257827    0.138478
 C         -2.819605    1.034881   -0.449069
 H         -0.977919    2.231427   -0.521324
 C         -3.207807   -0.277669   -0.199457
 C         -4.583680   -0.728344   -0.150162
 C         -5.221537   -1.971434   -0.235846
 S         -5.801011    0.534205    0.022107
 C         -6.645647   -1.879733   -0.211218
 C         -7.130990   -0.602893   -0.087774
 C         -8.502159   -0.148874   -0.029691
 C         -8.998368    1.124008   -0.152994
 S         -9.815245   -1.276944    0.250383
 C        -10.419037    1.216895   -0.042342
 H         -8.377291    1.992289   -0.333625
 C        -11.041017   -0.019273    0.149527
 C        -12.419343   -0.469812    0.245890
 C        -12.842057   -1.766381   -0.012679
 S        -13.779010    0.488732    0.824546
 C        -14.213597   -1.993668    0.258134
 H        -12.180379   -2.529962   -0.407007
 C        -14.841528   -0.870243    0.730163
 H        -15.884499   -0.750973    0.994639
 H        -14.711029   -2.943623    0.097256
 H         -7.279339   -2.753101   -0.298744
 H         -3.525666    1.815809   -0.709006
 H          0.940404   -2.036221    0.942334
 H          8.323316   -2.021425   -0.039974
 H         12.172739    2.399387   -0.807721
 C        -11.113757    2.514364   -0.152366
 O        -12.274199    2.731696    0.151982
 O        -10.293649    3.477639   -0.629008
 C         -4.543363   -3.274650   -0.362680
 O         -3.351531   -3.479235   -0.201649
 O         -5.413405   -4.261115   -0.673167
 C          4.581192    3.327543   -0.082390
 O          3.389685    3.521442   -0.258459
 O          5.468692    4.338578    0.047664
 C         11.055839   -2.580774   -0.022932
 O         12.232820   -2.794649    0.212554
 O         10.187609   -3.565203   -0.346497
 C        -10.872907    4.790318   -0.733580
 H        -10.078954    5.426398   -1.124518
 H        -11.726478    4.778302   -1.415686
 H        -11.200965    5.143673    0.247261
 C         -4.845873   -5.578300   -0.785191
 H         -4.098230   -5.605809   -1.581673
 H         -4.379360   -5.876134    0.157143
 H         -5.683042   -6.234286   -1.023094
 C          4.919786    5.664390   -0.054876
 H          4.445398    5.808552   -1.028864
 H          4.182569    5.834925    0.733460
 H          5.768348    6.338196    0.062117
 C         10.737924   -4.894037   -0.375811
 H         11.146628   -5.161499    0.601842
 H          9.904342   -5.546533   -0.635010
 H         11.528064   -4.963894   -1.127419
        82
T1: Total Energy = -5327.16926844
 C        -14.874259    0.848275   -0.274811
 C        -14.214380    1.952842    0.199563
 C        -12.826102    1.722607    0.349999
 C        -12.419438    0.441873   -0.003766
 S        -13.819236   -0.497142   -0.520085
 H        -15.934378    0.735374   -0.462974
 H        -14.700466    2.890669    0.444295
 C        -11.038728   -0.002221   -0.029831
 C        -10.399916   -1.247172    0.024576
 C         -8.980005   -1.154480    0.047514
 C         -8.489482    0.131909   -0.007249
 S         -9.824432    1.270880   -0.105057
 C         -7.126903    0.577259   -0.004427
 C         -6.639983    1.871334    0.004661
 S         -5.795438   -0.568233   -0.014399
 C         -5.234161    1.985321    0.007020
 H         -7.283608    2.741803    0.014946
 C         -4.563765    0.724502    0.000793
 C         -3.217379    0.307847    0.003474
 C         -2.808374   -1.062580    0.003586
 S         -1.773682    1.343950    0.004136
 C         -1.452945   -1.269879    0.003282
 H         -3.523902   -1.876980    0.004779
 C         -0.692271   -0.068531    0.002959
 C          0.692279    0.068751    0.002935
 C          1.452955    1.270101    0.003135
 S          1.773691   -1.343730    0.004162
 C          2.808382    1.062806    0.003367
 H          0.995420    2.253456    0.003435
 C          3.217387   -0.307626    0.003350
 C          4.563757   -0.724305    0.000710
 C          5.234087   -1.985159    0.006988
 S          5.795500    0.568368   -0.014602
 C          6.639913   -1.871251    0.004603
 C          7.126900   -0.577198   -0.004528
 C          8.489503   -0.131924   -0.007329
 C          8.980100    1.154431    0.047522
 S          9.824390   -1.270965   -0.105210
 C         10.400016    1.247046    0.024615
 H          8.347745    2.031012    0.108566
 C         11.038764    0.002062   -0.029856
 C         12.419446   -0.442128   -0.003800
 C         12.826007   -1.722978    0.349677
 S         13.819348    0.496947   -0.519717
 C         14.214276   -1.953265    0.199265
 H         12.138785   -2.471828    0.728140
 C         14.874259   -0.848615   -0.274774
 H         15.934399   -0.735735   -0.462829
 H         14.700285   -2.891191    0.443774
 H          7.283492   -2.741753    0.014946
 H          3.523910    1.877207    0.004447
 H         -0.995412   -2.253235    0.003635
 H         -8.347604   -2.031030    0.108520
 H        -12.138951    2.471400    0.728705
 C         11.081250    2.556274    0.074214
 O         12.259140    2.757891   -0.166833
 O         10.227181    3.547424    0.411960
 C          4.585697   -3.304323    0.019419
 O          3.382520   -3.515541    0.020803
 O          5.492343   -4.310053    0.029148
 C         -4.585879    3.304539    0.019424
 O         -3.382722    3.515867    0.020982
 O         -5.492612    4.310192    0.028863
 C        -11.081068   -2.556448    0.074080
 O        -12.258867   -2.758172   -0.167328
 O        -10.227039   -3.547495    0.412215
 C         10.792887    4.869851    0.448693
 H          9.968808    5.529148    0.720577
 H         11.589808    4.923691    1.194367
 H         11.196425    5.141314   -0.529961
 C          4.944564   -5.638983    0.039984
 H          4.332715   -5.794945    0.932060
 H          4.332926   -5.809545   -0.849548
 H          5.806161   -6.306581    0.045540
 C         -4.944949    5.639169    0.039796
 H         -4.332964    5.795067    0.931787
 H         -4.333474    5.809901   -0.849819
 H         -5.806604    6.306690    0.045569
 C        -10.792631   -4.869976    0.448789
 H        -11.196001   -5.141422   -0.529938
 H         -9.968535   -5.529213    0.720767
 H        -11.589658   -4.923926    1.194343
        82
S1: Total Energy = -5327.14529146
 C        -14.881593    0.841210   -0.335465
 C        -14.214273    1.977324    0.049614
 C        -12.826725    1.757409    0.198268
 C        -12.421306    0.451479   -0.069118
 S        -13.831839   -0.519938   -0.501652
 H        -15.944012    0.718204   -0.503555
 H        -14.696814    2.931163    0.231495
 C        -11.046344    0.007534   -0.067537
 C        -10.404859   -1.241760    0.002310
 C         -8.990472   -1.151789    0.042020
 C         -8.492528    0.137134   -0.010947
 S         -9.825236    1.279857   -0.129849
 C         -7.134446    0.574948    0.006758
 C         -6.641851    1.868960    0.019947
 S         -5.802043   -0.572734    0.011782
 C         -5.235617    1.976807    0.037692
 H         -7.282309    2.741788    0.023301
 C         -4.571679    0.716442    0.038476
 C         -3.218967    0.291065    0.051158
 C         -2.813790   -1.066574    0.055761
 S         -1.778113    1.325295    0.054016
 C         -1.445938   -1.270609    0.058405
 H         -3.525057   -1.884715    0.057433
 C         -0.700835   -0.076144    0.056496
 C          0.700825    0.076195    0.056495
 C          1.445925    1.270661    0.058423
 S          1.778105   -1.325243    0.053999
 C          2.813778    1.066626    0.055783
 H          0.987078    2.253443    0.062146
 C          3.218956   -0.291010    0.051168
 C          4.571670   -0.716385    0.038487
 C          5.235599   -1.976751    0.037740
 S          5.802042    0.572784    0.011761
 C          6.641836   -1.868914    0.020007
 C          7.134437   -0.574907    0.006783
 C          8.492527   -0.137104   -0.010931
 C          8.990492    1.151812    0.042084
 S          9.825212   -1.279841   -0.129936
 C         10.404880    1.241752    0.002327
 H          8.360186    2.028849    0.115083
 C         11.046325   -0.007547   -0.067573
 C         12.421285   -0.451510   -0.069080
 C         12.826723   -1.757308    0.198881
 S         13.831741    0.519680   -0.502346
 C         14.214246   -1.977314    0.050076
 H         12.136607   -2.531278    0.516434
 C         14.881510   -0.841405   -0.335702
 H         15.943900   -0.718494   -0.504041
 H         14.696815   -2.931061    0.232359
 H          7.282289   -2.741745    0.023423
 H          3.525044    1.884768    0.057475
 H         -0.987090   -2.253392    0.062105
 H         -8.360150   -2.028820    0.114931
 H        -12.136576    2.531569    0.515281
 C         11.084799    2.551984    0.051060
 O         12.265946    2.752400   -0.175170
 O         10.227320    3.545742    0.370560
 C          4.582983   -3.293417    0.060113
 O          3.378790   -3.500694    0.079913
 O          5.485890   -4.303261    0.056893
 C         -4.583015    3.293480    0.060031
 O         -3.378823    3.500773    0.079797
 O         -5.485934    4.303314    0.056837
 C        -11.084716   -2.552020    0.051046
 O        -12.265957   -2.752432   -0.174696
 O        -10.227076   -3.545828    0.369968
 C         10.793738    4.867932    0.407703
 H          9.966538    5.529242    0.664731
 H         11.580486    4.925149    1.163856
 H         11.210659    5.133600   -0.566899
 C          4.932870   -5.629595    0.078437
 H          4.335326   -5.782290    0.980805
 H          4.305523   -5.798843   -0.800408
 H          5.791566   -6.300967    0.070345
 C         -4.932926    5.629654    0.078320
 H         -4.335271    5.782353    0.980612
 H         -4.305693    5.798913   -0.800605
 H         -5.791632    6.301016    0.070336
 C        -10.793470   -4.868026    0.407164
 H        -11.210820   -5.133550   -0.567294
 H         -9.966151   -5.529368    0.663726
 H        -11.579883   -4.925362    1.163657
