        98
S0: Total Energy = -6629.13098121
 C         -9.322146    0.515508   -0.000539
 C         -8.072164    1.123196   -0.035824
 C         -9.283670   -0.928319    0.043220
 C         -6.850590    0.419319   -0.029956
 H         -8.010705    2.206918   -0.069787
 C         -8.017243   -1.658047    0.049438
 N        -10.349186   -1.733678    0.081521
 C         -6.749198   -0.966673    0.012258
 H         -5.943870    1.016312   -0.060821
 N         -8.179800   -2.983574    0.092480
 S         -9.794763   -3.278283    0.122121
 C        -10.562386    1.271146   -0.006857
 C        -11.877532    0.827253    0.033651
 S        -10.526405    3.044889   -0.072618
 C        -12.846611    1.858884    0.014241
 H        -12.109163   -0.228578    0.076510
 C        -12.258818    3.119145   -0.042592
 C        -13.154665    4.259032   -0.067263
 C        -14.518346    3.985288   -0.032056
 S        -12.820987    5.965639   -0.134920
 C        -15.290540    5.182918   -0.060924
 C        -14.527540    6.322069   -0.116270
 H        -16.375408    5.212478   -0.041806
 H        -14.857303    7.352144   -0.147300
 C        -15.593669    1.386467   -1.471689
 H        -15.553086    0.290755   -1.460540
 H        -16.649630    1.681253   -1.492437
 H        -15.125973    1.733591   -2.399036
 C        -15.533031    1.502863    1.636405
 H        -16.588154    1.798825    1.675569
 H        -15.490110    0.409449    1.706624
 H        -15.030844    1.918963    2.516110
 C         -5.473126   -1.659769    0.019261
 S         -3.957006   -0.738259   -0.010362
 C         -5.198916   -3.022058    0.047239
 C         -3.023646   -2.201298    0.014888
 C         -3.822246   -3.343904    0.044897
 H         -5.997630   -3.751295    0.068776
 C         -1.594364   -2.405928    0.010647
 S         -0.288734   -1.263210   -0.023330
 C         -1.148074   -3.726996    0.037014
 C         -2.833428   -5.939926   -1.459732
 C         -2.816098   -5.868995    1.652690
 C          0.908553   -2.572991   -0.000741
 C          0.263284   -3.803942    0.029655
 H         -2.048949   -6.705808   -1.476654
 H         -3.802250   -6.453186   -1.473322
 H         -2.749904   -5.348211   -2.377354
 H         -3.785430   -6.379216    1.700844
 H         -2.032569   -6.634814    1.695232
 H         -2.721103   -5.236384    2.541459
 C          2.326997   -2.265346   -0.012964
 H          0.825477   -4.728003    0.046146
 C          2.812467   -0.962093   -0.006769
 C          3.350822   -3.284960   -0.033528
 C          4.181918   -0.629163   -0.020021
 H          2.109365   -0.134582    0.010501
 C          4.770822   -2.939454   -0.046605
 N          3.135290   -4.603474   -0.043412
 C          5.211564   -1.563567   -0.039046
 H          4.426736    0.428841   -0.015332
 N          5.567858   -4.011690   -0.064822
 S          4.602508   -5.339639   -0.066238
 C          6.613238   -1.184720   -0.048904
 S          7.074943    0.527737    0.006686
 C          7.751305   -1.980883   -0.098799
 C          8.759089    0.113183   -0.040324
 C          8.969906   -1.263534   -0.095131
 H          7.676356   -3.059381   -0.136654
 C          9.935430    0.952105   -0.029772
 S         10.090543    2.678973    0.035539
 C         11.169066    0.305359   -0.075322
 C         11.429639   -2.365641   -1.741550
 C         11.488315   -2.486416    1.368513
 C         11.859300    2.558516   -0.000205
 C         12.243435    1.225932   -0.056801
 H         12.524827   -2.374397   -1.793603
 H         11.083597   -3.404173   -1.804550
 H         11.052473   -1.828438   -2.618069
 H         11.140642   -3.526313    1.365290
 H         12.584677   -2.500354    1.376569
 H         11.147963   -2.017567    2.297731
 C         12.679081    3.762261    0.028170
 H         13.288469    0.947004   -0.083188
 C         12.129981    5.037349    0.013018
 C         14.125691    3.711810    0.076432
 C         12.903257    6.231206    0.044322
 H         11.050382    5.148067   -0.028320
 C         14.907823    4.940198    0.107059
 N         14.883867    2.610764    0.100524
 C         14.273826    6.212902    0.090300
 H         12.376179    7.180728    0.029038
 N         16.230396    4.733830    0.152247
 S         16.451368    3.106031    0.155992
 H         14.871224    7.117300    0.113459
Si         10.841115   -1.559284   -0.141142
Si         -2.673568   -4.850242    0.071633
Si        -14.723926    2.104173    0.041255
        98
T1: Total Energy = -6629.09725840
 C          9.304240    0.510413    0.006903
 C          8.051276    1.138488    0.026585
 C          9.253496   -0.934363   -0.009657
 C          6.832796    0.456061    0.029443
 H          8.007401    2.223474    0.039574
 C          7.980412   -1.652886   -0.006232
 N         10.311990   -1.747811   -0.028907
 C          6.716202   -0.944625    0.013100
 H          5.929879    1.059017    0.045068
 N          8.128047   -2.977728   -0.023184
 S          9.745384   -3.293868   -0.041850
 C         10.542053    1.251874    0.003097
 C         11.858937    0.794963   -0.025388
 S         10.523876    3.029632    0.036147
 C         12.833710    1.815108   -0.022191
 H         12.078814   -0.263929   -0.048120
 C         12.257067    3.085292    0.009920
 C         13.163547    4.212835    0.016136
 C         14.526082    3.923812   -0.010634
 S         12.848334    5.924522    0.051980
 C         15.310049    5.112830   -0.001586
 C         14.558490    6.261151    0.031134
 H         16.395152    5.130987   -0.018445
 H         14.899700    7.287896    0.044310
 C         15.571808    1.340942    1.479130
 H         15.519783    0.245707    1.487241
 H         16.630683    1.625131    1.497818
 H         15.104978    1.709407    2.398619
 C         15.518675    1.401206   -1.631815
 H         16.576903    1.685179   -1.674860
 H         15.464099    0.307222   -1.681752
 H         15.021953    1.806321   -2.519686
 C          5.448664   -1.607905    0.014110
 S          3.935781   -0.666817    0.028542
 C          5.154593   -2.985027    0.003724
 C          2.985302   -2.127865    0.019744
 C          3.795519   -3.293126    0.006897
 H          5.951961   -3.716028   -0.006142
 C          1.588778   -2.320461    0.021506
 S          0.274506   -1.174996    0.033037
 C          1.129330   -3.667468    0.010590
 C          2.798688   -5.866705    1.545454
 C          2.791492   -5.838680   -1.571255
 C         -0.926241   -2.499736    0.022643
 C         -0.254427   -3.750500    0.011627
 H          2.011911   -6.629917    1.569486
 H          3.766100   -6.382041    1.571229
 H          2.712117   -5.260748    2.453329
 H          3.759043   -6.352897   -1.610748
 H          2.005010   -6.601783   -1.605415
 H          2.700493   -5.216516   -2.467663
 C         -2.311764   -2.220836    0.024297
 H         -0.821979   -4.671299    0.004240
 C         -2.812058   -0.884716    0.032600
 C         -3.330985   -3.254640    0.016554
 C         -4.152574   -0.568455    0.031253
 H         -2.102245   -0.063171    0.039649
 C         -4.752969   -2.914914    0.015396
 N         -3.102671   -4.565410    0.009935
 C         -5.196448   -1.535833    0.021681
 H         -4.418865    0.484180    0.037493
 N         -5.549314   -3.982934    0.007878
 S         -4.577543   -5.327177    0.002732
 C         -6.569918   -1.161912    0.017552
 S         -7.044414    0.558115    0.022328
 C         -7.724079   -1.969614    0.008150
 C         -8.728376    0.130142    0.011388
 C         -8.930540   -1.263108    0.004572
 H         -7.637728   -3.047780    0.003964
 C         -9.901674    0.948079    0.007088
 S        -10.075578    2.677444    0.011963
 C        -11.138321    0.286466   -0.003787
 C        -11.418670   -2.455416    1.541405
 C        -11.397478   -2.443310   -1.573966
 C        -11.844490    2.535950   -0.000870
 C        -12.215996    1.193789   -0.008178
 H        -12.514594   -2.478006    1.565919
 H        -11.061792   -3.491770    1.569058
 H        -11.068928   -1.951526    2.448488
 H        -11.040629   -3.479601   -1.604437
 H        -12.492948   -2.465191   -1.613975
 H        -11.034890   -1.932771   -2.472244
 C        -12.676297    3.726603   -0.002809
 H        -13.258927    0.906031   -0.016755
 C        -12.139234    5.009504    0.010842
 C        -14.123869    3.660992   -0.019720
 C        -12.924838    6.193549    0.008555
 H        -11.060153    5.130994    0.024288
 C        -14.918487    4.881951   -0.022006
 N        -14.871062    2.553058   -0.034924
 C        -14.296918    6.160580   -0.007511
 H        -12.408232    7.148848    0.020063
 N        -16.239615    4.662920   -0.038779
 S        -16.445403    3.032665   -0.050621
 H        -14.903823    7.058903   -0.009421
Si        -10.801405   -1.577723   -0.008773
Si          2.649803   -4.803048   -0.003142
Si         14.714582    2.039757   -0.049173
        98
S1: Total Energy = -6629.07884462
 C          9.303075    0.512304    0.012210
 C          8.047664    1.140820    0.044691
 C          9.258246   -0.931246   -0.014730
 C          6.832950    0.455878    0.049319
 H          8.002971    2.225601    0.066358
 C          7.987881   -1.651946   -0.008957
 N         10.321073   -1.741420   -0.046406
 C          6.724112   -0.945818    0.022499
 H          5.927405    1.054620    0.075004
 N          8.135565   -2.977859   -0.036487
 S          9.756216   -3.290949   -0.067169
 C         10.535729    1.256407    0.005351
 C         11.856391    0.802056   -0.035351
 S         10.513858    3.035186    0.050193
 C         12.826430    1.822267   -0.032411
 H         12.076091   -0.256649   -0.066530
 C         12.246303    3.094341    0.012091
 C         13.149352    4.219410    0.018806
 C         14.514678    3.932150   -0.019674
 S         12.832468    5.931422    0.067399
 C         15.295498    5.121042   -0.008949
 C         14.541589    6.268872    0.036252
 H         16.380362    5.141773   -0.033480
 H         14.882373    7.295753    0.053206
 C         15.575803    1.341704    1.446054
 H         15.525122    0.246399    1.447124
 H         16.634415    1.627098    1.458974
 H         15.114952    1.703525    2.371138
 C         15.499067    1.422335   -1.665300
 H         16.556714    1.707357   -1.714594
 H         15.444738    0.328704   -1.722147
 H         14.994962    1.833195   -2.546293
 C          5.457256   -1.615105    0.023959
 S          3.942649   -0.680400    0.047555
 C          5.168418   -2.990645    0.006797
 C          2.999345   -2.141560    0.033055
 C          3.806285   -3.301665    0.011874
 H          5.967881   -3.719099   -0.009432
 C          1.593577   -2.338333    0.036025
 S          0.282948   -1.194471    0.055194
 C          1.138702   -3.675884    0.017930
 C          2.811755   -5.882273    1.538298
 C          2.799575   -5.836754   -1.579194
 C         -0.914590   -2.512493    0.037941
 C         -0.256165   -3.755406    0.019586
 H          2.024784   -6.645309    1.560851
 H          3.779075   -6.397970    1.558510
 H          2.727978   -5.280759    2.449374
 H          3.766893   -6.351095   -1.621850
 H          2.012716   -6.599216   -1.617994
 H          2.708682   -5.208926   -2.471642
 C         -2.316524   -2.221118    0.040818
 H         -0.824606   -4.675522    0.007167
 C         -2.805566   -0.898076    0.055927
 C         -3.331385   -3.250689    0.026219
 C         -4.156916   -0.575104    0.054089
 H         -2.097153   -0.075069    0.068461
 C         -4.750957   -2.910901    0.024307
 N         -3.102088   -4.566851    0.013097
 C         -5.191160   -1.533799    0.036858
 H         -4.417113    0.478994    0.065437
 N         -5.550946   -3.981360    0.009781
 S         -4.577289   -5.320362   -0.000577
 C         -6.574772   -1.160313    0.030196
 S         -7.047701    0.557042    0.043108
 C         -7.722889   -1.967187    0.010866
 C         -8.731012    0.130870    0.021452
 C         -8.933086   -1.260941    0.005494
 H         -7.635863   -3.045314    0.000532
 C         -9.902884    0.950017    0.015099
 S        -10.076393    2.679518    0.028431
 C        -11.140675    0.288516   -0.007439
 C        -11.430566   -2.461430    1.521207
 C        -11.390604   -2.432518   -1.593982
 C        -11.845594    2.538846    0.003129
 C        -12.217058    1.194801   -0.014009
 H        -12.526627   -2.484185    1.538239
 H        -11.073691   -3.497875    1.545970
 H        -11.086870   -1.962040    2.433069
 H        -11.033087   -3.468467   -1.628608
 H        -12.485832   -2.454560   -1.639815
 H        -11.023446   -1.916516   -2.487250
 C        -12.676245    3.727271    0.002045
 H        -13.260244    0.908394   -0.031337
 C        -12.138028    5.012183    0.032297
 C        -14.123798    3.660840   -0.031858
 C        -12.923350    6.193351    0.030468
 H        -11.059085    5.132890    0.059540
 C        -14.918822    4.882501   -0.033665
 N        -14.869561    2.552770   -0.064605
 C        -14.297140    6.159578   -0.001791
 H        -12.408536    7.149464    0.055677
 N        -16.240282    4.663693   -0.067624
 S        -16.446015    3.031995   -0.094896
 H        -14.903630    7.058253   -0.003511
Si        -10.803216   -1.576007   -0.020525
Si          2.658263   -4.811196   -0.004596
Si         14.707821    2.048427   -0.071854
