       161
S0: Total Energy = -9536.06899126
 C        -18.012112   -0.008279   -0.061129
 C        -17.156822    1.044199   -0.016588
 S        -17.205519   -1.558598   -0.117006
 C        -15.770417    0.648684   -0.026320
 H        -17.483620    2.075267    0.032101
 C        -15.627434   -0.769108   -0.073246
 C        -14.624424    1.477607    0.053846
 C        -14.389463   -1.424602   -0.033670
 C        -13.388530    0.822958    0.092778
 C        -14.707565    2.948238    0.097292
 C        -13.243801   -0.594256    0.045169
 C        -14.308879   -2.894229   -0.073241
 S        -11.817048    1.614052    0.142333
 C        -14.166245    3.802221    1.023214
 S        -15.519428    3.874498   -1.155441
 C        -11.866493   -0.993168    0.030091
 C        -14.874870   -3.750079   -0.983660
 S        -13.473625   -3.818273    1.164751
 C        -10.975653    0.047867    0.075471
 C        -14.393432    5.193912    0.761951
 H        -13.630258    3.448606    1.898545
 C        -15.118086    5.397202   -0.389169
 H        -11.544566   -2.022485   -0.025386
 C        -14.648199   -5.140776   -0.721100
 H        -15.426839   -3.398095   -1.849565
 C        -13.900147   -5.341570    0.415912
 C        -15.550016    6.681654   -1.036232
 C        -13.463112   -6.625722    1.060132
 H        -14.939049    6.918920   -1.916690
 H        -15.457725    7.517321   -0.336904
 H        -16.594296    6.637868   -1.365470
 H        -14.071680   -6.866150    1.941472
 H        -13.554600   -7.460681    0.359709
 H        -12.418407   -6.579139    1.387211
 C        -15.198631   -6.222976   -1.614331
 H        -14.749677   -7.198296   -1.408377
 H        -16.284168   -6.327978   -1.489312
 H        -15.017400   -5.988707   -2.669778
 C        -13.867046    6.273175    1.673080
 H        -12.776899    6.368755    1.587086
 H        -14.300062    7.251837    1.450007
 H        -14.087794    6.042090    2.721780
 H        -19.094083    0.023731   -0.064799
 C         -9.519454    0.012178    0.071890
 C         -8.761658   -1.217009    0.055307
 C         -8.751429    1.167542    0.084171
 N         -9.276672   -2.449517    0.040712
 C         -7.301769   -1.209077    0.054132
 C         -7.338562    1.175299    0.083077
 H         -9.245756    2.134089    0.092073
 S         -8.019306   -3.503696    0.026232
 N         -6.773330   -2.435850    0.038637
 C         -6.557738    0.028483    0.069544
 H         -6.854985    2.147323    0.090452
 C         -5.102306    0.080330    0.070631
 C         -4.199823   -0.952081    0.026947
 S         -4.278056    1.654783    0.131794
 C         -2.828578   -0.538663    0.039236
 H         -4.510889   -1.984904   -0.025133
 C         -2.698318    0.880367    0.083863
 C         -1.673543   -1.358945   -0.039727
 C         -1.469901    1.547865    0.041323
 C         -0.445054   -0.691454   -0.082287
 C         -1.741012   -2.829585   -0.076447
 C         -0.314861    0.727557   -0.037696
 C         -1.402398    3.018494    0.078000
 S          1.134772   -1.465797   -0.130448
 C         -1.180400   -3.681409   -0.993740
 S         -2.552335   -3.758778    1.173346
 C          1.056202    1.141100   -0.025564
 C         -1.963105    3.870351    0.995210
 S         -0.590981    3.947668   -1.171760
 C          1.958885    0.108772   -0.069535
 C         -1.392237   -5.073726   -0.726815
 H         -0.642868   -3.325575   -1.867177
 C         -2.123763   -5.279329    0.420037
 H          1.367081    2.173971    0.026507
 C         -1.751250    5.262651    0.728260
 H         -2.500752    3.514531    1.868578
 C         -1.019612    5.468227   -0.418528
 C          3.414092    0.161379   -0.069199
 C         -0.845080   -6.152459   -1.626256
 C         -2.542333   -6.566303    1.070903
 C         -2.298557    6.341445    1.627533
 C         -0.601151    6.755219   -1.069433
 C          4.157364    1.399491   -0.053840
 C          4.195706   -0.985111   -0.083717
 H          0.242816   -6.248927   -1.515521
 H         -1.283542   -7.131073   -1.413458
 H         -1.042033   -5.920745   -2.679443
 H         -1.918889   -6.802503    1.942934
 H         -2.455998   -7.400758    0.369217
 H         -3.582230   -6.526586    1.413769
 H         -1.859494    7.319904    1.415235
 H         -3.386330    6.438438    1.516037
 H         -2.102466    6.109421    2.680809
 H         -1.225365    6.991929   -1.940778
 H         -0.686461    7.589512   -0.367419
 H          0.438386    6.715183   -1.413342
 N          3.628045    2.625849   -0.037304
 C          5.617179    1.408554   -0.056229
 C          5.608367   -0.976283   -0.086013
 H          3.712718   -1.957403   -0.091233
 S          4.873057    3.694653   -0.025395
 N          6.131247    2.641427   -0.041428
 C          6.375680    0.179798   -0.074013
 H          6.103397   -1.942474   -0.095107
 C          7.831578    0.145266   -0.079022
 C          8.721341    1.188652   -0.038484
 S          8.674994   -1.419036   -0.141796
 C         10.097644    0.792027   -0.054676
 H          8.397930    2.217644    0.013986
 C         10.245207   -0.625171   -0.098907
 C         11.242454    1.626450    0.020185
 C         11.482200   -1.277395   -0.059978
 C         12.479359    0.973919    0.059006
 C         11.157027    3.096160    0.056476
 C         12.626798   -0.442981    0.014901
 C         11.567720   -2.747233   -0.096333
 S         14.049663    1.767668    0.101226
 C         11.709535    3.955203    0.971946
 S         10.330654    4.014852   -1.191283
 C         14.004393   -0.839077   -0.001542
 C         11.016335   -3.606208   -1.012541
 S         12.392985   -3.665728    1.152065
 C         14.892292    0.204014    0.037950
 C         11.479514    5.344693    0.705322
 H         12.253868    3.606320    1.843973
 C         10.742291    5.540859   -0.439532
 H         14.328423   -1.868130   -0.053115
 C         11.246420   -4.995660   -0.745815
 H         10.472707   -3.257372   -1.885036
 C         11.982584   -5.191733    0.399740
 C         16.352373    0.167341    0.030615
 C         12.015403    6.430391    1.603162
 C         10.305859    6.822369   -1.089449
 C         10.711465   -6.081567   -1.643968
 C         12.418573   -6.473249    1.049936
 C         17.099619   -1.071330    0.025013
 C         17.115364    1.324921    0.028473
 H         13.101795    6.540178    1.490027
 H         11.564485    7.403467    1.391022
 H         11.823635    6.196653    2.656860
 H         10.923426    7.065834   -1.963668
 H         10.384374    7.658080   -0.388342
 H          9.265387    6.769847   -1.428830
 H         11.164847   -7.053871   -1.433485
 H          9.625494   -6.193874   -1.529249
 H         10.901121   -5.846350   -2.697710
 H         11.798556   -6.718203    1.922003
 H         12.343229   -7.308454    0.347863
 H         13.457929   -6.419747    1.392512
 N         16.593294   -2.308727    0.025374
 C         18.555121   -1.053895    0.018924
 C         18.539518    1.332474    0.023567
 H         16.615232    2.288681    0.027999
 S         17.866139   -3.349295    0.017957
 N         19.107521   -2.273769    0.014521
 C         19.272718    0.174440    0.018598
 H         19.045703    2.293240    0.022514
 H         20.356961    0.168595    0.014178
       161
T1: Total Energy = -9536.02542753
 C         17.983635   -0.013495    0.073941
 C         17.130032    1.040357    0.023088
 S         17.174681   -1.562025    0.135268
 C         15.743364    0.647197    0.032125
 H         17.458661    2.070623   -0.029751
 C         15.597883   -0.770242    0.085362
 C         14.598841    1.478164   -0.054333
 C         14.359064   -1.423878    0.046109
 C         13.362209    0.825884   -0.092842
 C         14.685163    2.948379   -0.104711
 C         13.214584   -0.591328   -0.038813
 C         14.275652   -2.892840    0.091917
 S         11.792497    1.620100   -0.149259
 C         14.148495    3.798809   -1.036602
 S         15.495249    3.879085    1.145812
 C         11.837916   -0.987537   -0.023823
 C         14.842826   -3.746029    1.004366
 S         13.435040   -3.820621   -1.139683
 C         10.947306    0.055771   -0.076108
 C         14.377904    5.191296   -0.781627
 H         13.614501    3.441936   -1.911837
 C         15.099494    5.398764    0.370691
 H         11.513474   -2.015731    0.037154
 C         14.612833   -5.137208    0.748331
 H         15.397531   -3.391492    1.867462
 C         13.861118   -5.341326   -0.385787
 C         15.532355    6.685446    1.012680
 C         13.420863   -6.627577   -1.023564
 H         14.919576    6.928161    1.890379
 H         15.443617    7.517905    0.309097
 H         16.575679    6.641104    1.344843
 H         14.032958   -6.877112   -1.899927
 H         13.504341   -7.458197   -0.316968
 H         12.378220   -6.577835   -1.356546
 C         15.163842   -6.217097    1.643987
 H         14.706836   -7.190767    1.448089
 H         16.247579   -6.330080    1.510567
 H         14.992938   -5.974788    2.699300
 C         13.856775    6.267089   -1.699856
 H         12.766437    6.364620   -1.618701
 H         14.290299    7.246140   -1.479568
 H         14.081425    6.030846   -2.746577
 H         19.065645    0.016898    0.079427
 C          9.494219    0.021268   -0.074759
 C          8.734649   -1.206869   -0.050217
 C          8.726444    1.181356   -0.097350
 N          9.248171   -2.439524   -0.025547
 C          7.274642   -1.197243   -0.051536
 C          7.318507    1.192369   -0.098510
 H          9.224289    2.145962   -0.112359
 S          7.989303   -3.493721   -0.005210
 N          6.744379   -2.422001   -0.027689
 C          6.532316    0.042877   -0.077024
 H          6.835562    2.164596   -0.115269
 C          5.085122    0.098633   -0.079514
 C          4.175097   -0.940187   -0.039350
 S          4.257446    1.667390   -0.135801
 C          2.814989   -0.531236   -0.056249
 H          4.490071   -1.971607    0.015827
 C          2.677528    0.889627   -0.097306
 C          1.654740   -1.363597    0.023780
 C          1.450317    1.552105   -0.045927
 C          0.430987   -0.707952    0.075279
 C          1.737291   -2.832445    0.057281
 C          0.288523    0.718950    0.032353
 C          1.373296    3.017568   -0.071926
 S         -1.146431   -1.495336    0.125774
 C          1.177622   -3.691013    0.969611
 S          2.566237   -3.752151   -1.188216
 C         -1.062407    1.124260    0.011304
 C          1.993330    3.882989   -0.941254
 S          0.470997    3.932904    1.125716
 C         -1.988959    0.073200    0.060875
 C          1.403165   -5.080264    0.701524
 H          0.632160   -3.341364    1.840566
 C          2.144447   -5.276968   -0.440937
 H         -1.389356    2.150794   -0.059612
 C          1.756734    5.268848   -0.676968
 H          2.585064    3.538897   -1.783515
 C          0.946423    5.459136    0.420297
 C         -3.405674    0.137868    0.061386
 C          0.858740   -6.167081    1.592784
 C          2.574900   -6.559920   -1.091801
 C          2.357457    6.365119   -1.519170
 C          0.486746    6.741393    1.051667
 C         -4.144436    1.384010    0.026259
 C         -4.207133   -1.049674    0.097514
 H         -0.222065   -6.295349    1.449614
 H          1.330941   -7.134398    1.401093
 H          1.016962   -5.921993    2.649293
 H          1.936042   -6.815776   -1.946996
 H          2.522101   -7.390384   -0.381922
 H          3.605303   -6.501216   -1.459194
 H          1.812823    7.308135   -1.417609
 H          3.401410    6.558367   -1.239405
 H          2.352602    6.089487   -2.579541
 H          1.117724    7.022329    1.905030
 H          0.525449    7.562961    0.330123
 H         -0.543183    6.666064    1.416199
 N         -3.606501    2.600146   -0.010383
 C         -5.606070    1.393914    0.029403
 C         -5.578823   -1.039033    0.100243
 H         -3.707349   -2.012976    0.122546
 S         -4.859717    3.697591   -0.040308
 N         -6.127472    2.617968   -0.004991
 C         -6.361778    0.159425    0.067573
 H         -6.092920   -1.994705    0.127343
 C         -7.782993    0.115670    0.073129
 C         -8.692154    1.176001    0.030526
 S         -8.644560   -1.443445    0.138065
 C        -10.052659    0.786797    0.054937
 H         -8.353960    2.199172   -0.036743
 C        -10.211336   -0.636606    0.095611
 C        -11.201653    1.632263   -0.015778
 C        -11.445492   -1.277883    0.050201
 C        -12.439037    0.984112   -0.061128
 C        -11.108507    3.097620   -0.039602
 C        -12.592617   -0.433219   -0.022675
 C        -11.544431   -2.746497    0.082153
 S        -14.008851    1.781481   -0.090903
 C        -11.714204    3.971076   -0.910211
 S        -10.201233    4.000429    1.163630
 C        -13.963594   -0.825271   -0.002336
 C        -11.000292   -3.612221    0.996607
 S        -12.377544   -3.654899   -1.168566
 C        -14.854440    0.222766   -0.034714
 C        -11.462344    5.354244   -0.642957
 H        -12.307163    3.634947   -1.754881
 C        -10.654886    5.533719    0.457889
 H        -14.290772   -1.853343    0.048279
 C        -11.241503   -4.998744    0.726237
 H        -10.454302   -3.269844    1.870149
 C        -11.979110   -5.185694   -0.420045
 C        -16.311104    0.185411   -0.024777
 C        -12.046429    6.457108   -1.488241
 C        -10.180796    6.808713    1.093474
 C        -10.715115   -6.092150    1.620301
 C        -12.423229   -6.462477   -1.073929
 C        -17.058154   -1.054037   -0.009450
 C        -17.075521    1.344403   -0.029023
 H        -13.099124    6.639836   -1.235531
 H        -11.511407    7.402268   -1.360360
 H        -12.010392    6.194623   -2.551484
 H        -10.796605    7.083926    1.959660
 H        -10.228044    7.636992    0.380337
 H         -9.145267    6.726555    1.440572
 H        -11.189238   -7.056308    1.417918
 H         -9.633018   -6.225011    1.491833
 H        -10.886878   -5.850877    2.675647
 H        -11.791772   -6.719417   -1.934271
 H        -12.372451   -7.296448   -0.368093
 H        -13.455487   -6.394398   -1.434615
 N        -16.551879   -2.290925   -0.002438
 C        -18.513690   -1.036308   -0.000331
 C        -18.498115    1.351098   -0.020931
 H        -16.575474    2.308169   -0.037425
 S        -17.824939   -3.332142    0.014650
 N        -19.066123   -2.256100    0.013462
 C        -19.231081    0.191851   -0.006599
 H        -19.005277    2.311301   -0.025420
 H        -20.315290    0.185970    0.000136
       161
S1: Total Energy = -9536.00868717
 C         17.981288   -0.023169    0.077973
 C         17.127520    1.032797    0.034972
 S         17.171206   -1.569208    0.128461
 C         15.742538    0.641601    0.043233
 H         17.457860    2.062703   -0.012781
 C         15.594282   -0.775635    0.087419
 C         14.597782    1.477258   -0.041453
 C         14.354588   -1.427755    0.039908
 C         13.361655    0.829263   -0.088586
 C         14.689349    2.946774   -0.083695
 C         13.208798   -0.589868   -0.042417
 C         14.268674   -2.894213    0.074394
 S         11.793513    1.627915   -0.142910
 C         14.147489    3.804381   -1.006458
 S         15.512733    3.867968    1.165316
 C         11.836400   -0.981822   -0.027231
 C         14.870640   -3.757965    0.956658
 S         13.379189   -3.810834   -1.131748
 C         10.942177    0.066639   -0.076842
 C         14.383263    5.194299   -0.745508
 H         13.605832    3.454126   -1.879597
 C         15.114787    5.392913    0.402310
 H         11.504810   -2.007559    0.035372
 C         14.629473   -5.144851    0.696876
 H         15.454890   -3.412543    1.803646
 C         13.834224   -5.337224   -0.410464
 C         15.554772    6.674962    1.048563
 C         13.373615   -6.618720   -1.042840
 H         14.940720    6.919978    1.924752
 H         15.474055    7.509586    0.346523
 H         16.596592    6.622440    1.384024
 H         13.985473   -6.883962   -1.914886
 H         13.439660   -7.446820   -0.331148
 H         12.333785   -6.552000   -1.380751
 C         15.212555   -6.236738    1.556896
 H         14.703212   -7.193401    1.411709
 H         16.276097   -6.394405    1.334942
 H         15.139625   -5.977809    2.619245
 C         13.857793    6.277556   -1.652381
 H         12.770314    6.387538   -1.551175
 H         14.306557    7.251141   -1.438317
 H         14.060730    6.040526   -2.703269
 H         19.063301    0.006638    0.082812
 C          9.496373    0.031363   -0.077021
 C          8.739591   -1.196771   -0.047129
 C          8.727671    1.202170   -0.107298
 N          9.255736   -2.429165   -0.015663
 C          7.279215   -1.186266   -0.050027
 C          7.329801    1.214938   -0.110022
 H          9.231298    2.163710   -0.128103
 S          7.992214   -3.488665    0.008888
 N          6.744180   -2.408846   -0.020664
 C          6.540976    0.055977   -0.082251
 H          6.843164    2.185277   -0.133623
 C          5.101746    0.113020   -0.085248
 C          4.187745   -0.932312   -0.038126
 S          4.266412    1.674199   -0.147938
 C          2.832052   -0.529495   -0.064069
 H          4.513288   -1.959067    0.035240
 C          2.687416    0.891883   -0.109897
 C          1.670242   -1.367651    0.025457
 C          1.460057    1.550258   -0.050288
 C          0.443819   -0.710675    0.085580
 C          1.754680   -2.830501    0.059525
 C          0.297867    0.712016    0.039599
 C          1.377170    3.012080   -0.083729
 S         -1.134645   -1.494047    0.127157
 C          1.118923   -3.695067    0.921223
 S          2.684659   -3.748884   -1.114324
 C         -1.056979    1.113967    0.016446
 C          2.025711    3.877591   -0.936424
 S          0.432352    3.930968    1.078094
 C         -1.972453    0.066889    0.066032
 C          1.365422   -5.079249    0.669007
 H          0.510693   -3.348849    1.750491
 C          2.198516   -5.271536   -0.412441
 H         -1.387383    2.138992   -0.058055
 C          1.777770    5.260955   -0.686053
 H          2.642180    3.531758   -1.759729
 C          0.930545    5.452787    0.385207
 C         -3.409137    0.124001    0.066974
 C          0.753294   -6.177975    1.499469
 C          2.667095   -6.557835   -1.027945
 C          2.399678    6.361807   -1.506345
 C          0.455781    6.739996    0.993647
 C         -4.141966    1.367059    0.038271
 C         -4.197686   -1.043368    0.096055
 H         -0.257893   -6.426743    1.151681
 H          1.344941   -7.097557    1.464690
 H          0.669746   -5.873489    2.548223
 H          2.007723   -6.878492   -1.845130
 H          2.680338   -7.359868   -0.283374
 H          3.677927   -6.465918   -1.438310
 H          1.790528    7.270728   -1.502230
 H          3.393238    6.633185   -1.125980
 H          2.525268    6.048220   -2.548088
 H          1.117555    7.071701    1.804550
 H          0.432600    7.536329    0.243019
 H         -0.551913    6.643581    1.410291
 N         -3.600900    2.588623    0.007951
 C         -5.602086    1.379131    0.040933
 C         -5.588357   -1.030947    0.098340
 H         -3.706695   -2.011697    0.116907
 S         -4.852936    3.676187   -0.015862
 N         -6.121999    2.610578    0.012819
 C         -6.356475    0.149739    0.072388
 H         -6.096579   -1.990076    0.120086
 C         -7.796003    0.115865    0.077925
 C         -8.693342    1.170589    0.034324
 S         -8.653993   -1.440904    0.143269
 C        -10.060137    0.784227    0.056679
 H         -8.354431    2.193685   -0.031323
 C        -10.220506   -0.636643    0.100080
 C        -11.207589    1.629847   -0.019462
 C        -11.456921   -1.278583    0.053552
 C        -12.446126    0.983189   -0.065798
 C        -11.113776    3.094619   -0.049056
 C        -12.602436   -0.433874   -0.023825
 C        -11.555507   -2.746230    0.088593
 S        -14.015616    1.782474   -0.098578
 C        -11.726142    3.965878   -0.918156
 S        -10.198231    4.002180    1.144796
 C        -13.974434   -0.823463   -0.002125
 C        -10.993595   -3.611641    0.993417
 S        -12.411408   -3.656621   -1.145480
 C        -14.864422    0.225413   -0.038619
 C        -11.473253    5.349444   -0.657144
 H        -12.324152    3.626891   -1.758051
 C        -10.657987    5.532756    0.437863
 H        -14.304006   -1.850505    0.053477
 C        -11.239260   -4.997964    0.728953
 H        -10.432514   -3.268403    1.856905
 C        -11.997765   -5.186216   -0.403776
 C        -16.320020    0.190325   -0.029859
 C        -12.063493    6.450121   -1.500930
 C        -10.181375    6.810433    1.065758
 C        -10.696398   -6.091019    1.613523
 C        -12.451637   -6.464140   -1.048505
 C        -17.068920   -1.048154   -0.006317
 C        -17.083474    1.351227   -0.043257
 H        -13.110214    6.643171   -1.231512
 H        -11.519067    7.392110   -1.389792
 H        -12.047918    6.178956   -2.562439
 H        -10.798522    7.093571    1.928522
 H        -10.224334    7.634125    0.346941
 H         -9.147066    6.727280    1.416172
 H        -11.182754   -7.052635    1.428569
 H         -9.619144   -6.232411    1.456423
 H        -10.837871   -5.843672    2.671892
 H        -11.829097   -6.725974   -1.913912
 H        -12.396235   -7.295708   -0.340110
 H        -13.487056   -6.394526   -1.399560
 N        -16.564082   -2.285344    0.009935
 C        -18.525015   -1.028347    0.001656
 C        -18.504932    1.359294   -0.036276
 H        -16.581869    2.314107   -0.058644
 S        -17.838953   -3.325753    0.033578
 N        -19.079282   -2.247475    0.023805
 C        -19.240069    0.200485   -0.014003
 H        -19.011357    2.319914   -0.048217
 H        -20.324316    0.196542   -0.008065
