       192
S0: Total Energy = -8755.49848444
 C          4.805752   -0.861057   -0.025189
 C          5.697511   -1.923831    0.006322
 C          7.040082   -1.498011   -0.004039
 C          7.213551   -0.108807   -0.044793
 C          8.574332    0.281194   -0.035475
 C          9.414217   -0.814041    0.003106
 C         10.803595   -0.408868    0.004183
 C         10.817538    1.008058   -0.058003
 C         12.019380    1.701468   -0.057673
 S          5.675088    0.699102   -0.072653
 S          8.579800   -2.349380    0.032157
 C          9.379997    1.580609   -0.095721
 H          5.372822   -2.953570    0.035266
 H         12.043028    2.786452   -0.098485
 C         19.183430    1.400959    0.050111
 C         18.333376    2.471997    0.014982
 C         16.973978    2.050085    0.018084
 C         16.800594    0.663228    0.056783
 C         15.436223    0.271468    0.042841
 C         14.597799    1.364137    0.002339
 C         13.206973    0.959144   -0.000782
 C         13.193093   -0.458231    0.061489
 C         11.992054   -1.151564    0.060775
 S         18.350480   -0.139351    0.090953
 S         15.435659    2.898614   -0.023222
 C         14.631772   -1.028863    0.100005
 H         18.664732    3.503540   -0.010683
 H         11.968169   -2.236565    0.101912
 C          9.044785    2.298622   -1.422328
 C          7.923100    3.137351   -1.509050
 C          7.553942    3.723356   -2.718960
 C          8.288026    3.497520   -3.890550
 C          9.400856    2.652845   -3.803372
 C          9.773756    2.063100   -2.594809
 H          7.334252    3.346482   -0.620984
 H          6.677811    4.367351   -2.750440
 H          9.989837    2.449419   -4.695092
 H         10.640746    1.411205   -2.572265
 C          9.178649    2.482737    1.139443
 C          9.575044    3.828747    1.113466
 C          9.474977    4.629621    2.249478
 C          8.972965    4.122788    3.456012
 C          8.584116    2.778867    3.480689
 C          8.684837    1.972216    2.345869
 H          9.957388    4.261500    0.193853
 H          9.791848    5.668980    2.195589
 H          8.194072    2.350959    4.401598
 H          8.378637    0.932699    2.408106
 C         14.835203   -1.928337   -1.136779
 C         14.435918   -3.273700   -1.115835
 C         14.537741   -4.071715   -2.253652
 C         15.044523   -3.562615   -3.457325
 C         15.436663   -2.219617   -3.476927
 C         15.334269   -1.415772   -2.340135
 H         14.049651   -3.708173   -0.198641
 H         14.218149   -5.110459   -2.203673
 H         15.830341   -1.790023   -4.395523
 H         15.643119   -0.376829   -2.398161
 C         14.966256   -1.749498    1.425289
 C         16.084401   -2.592897    1.510345
 C         16.452237   -3.181824    2.719419
 C         15.720505   -2.953996    3.891920
 C         14.611495   -2.103891    3.806704
 C         14.239964   -1.511623    2.599126
 H         16.671324   -2.803521    0.621357
 H         17.325232   -3.830213    2.749448
 H         14.024483   -1.898458    4.699277
 H         13.376041   -0.855608    2.578013
 C          7.906193    4.161016   -5.192941
 H          8.363347    5.155726   -5.282032
 H          8.238953    3.572565   -6.054384
 C          8.832449    5.004038    4.674981
 H          8.846152    4.415283    5.598046
 H          9.639193    5.743040    4.730161
 C         15.185874   -4.440778   -4.678465
 H         14.371108   -5.170132   -4.743837
 H         15.187140   -3.848350   -5.599248
 C         16.099722   -3.620818    5.193388
 H         15.791245   -3.020162    6.055520
 H         15.618278   -4.603040    5.292597
 H          6.822002    4.295766   -5.270651
 H          7.885435    5.559947    4.656773
 H         16.126040   -5.007992   -4.654086
 H         17.180899   -3.782582    5.260161
 H         20.265159    1.415329    0.060439
 C          3.355306   -0.926425   -0.025936
 C          2.609068   -2.168143    0.012399
 C          2.531459    0.184054   -0.060718
 N          3.154799   -3.383536    0.050492
 C          1.146627   -2.201836    0.013398
 C          1.116385    0.151328   -0.059926
 F          3.059709    1.422990   -0.098414
 S          1.930769   -4.476804    0.084341
 N          0.657478   -3.441146    0.052170
 C          0.344506   -0.995712   -0.024185
 F          0.531363    1.364373   -0.097246
 C         -1.107797   -0.996585   -0.022092
 C         -1.949329   -2.099083    0.015175
 S         -2.047608    0.521726   -0.076726
 C         -3.310216   -1.735442    0.003317
 H         -1.577516   -3.112562    0.048697
 C         -3.547447   -0.355978   -0.044473
 S         -4.808025   -2.657490    0.043435
 C         -4.924927   -0.029651   -0.037800
 C         -5.712797   -1.162935    0.005273
 C         -5.789924    1.230586   -0.105268
 C         -7.118948   -0.823440    0.000954
 C         -7.199325    0.591751   -0.068683
 C         -5.634032    2.146250    1.126574
 C         -5.485478    1.958937   -1.433704
 C         -8.270420   -1.622004    0.057761
 C         -8.432045    1.226905   -0.075565
 C         -6.103780    3.468497    1.096345
 C         -5.108340    1.668971    2.332953
 C         -4.408551    2.854457   -1.518809
 C         -6.195187    1.680339   -2.608561
 C         -9.503155   -0.986716    0.051121
 H         -8.194905   -2.704354    0.104281
 C         -9.583448    0.428284   -0.018605
 H         -8.507560    2.309282   -0.121750
 C         -6.044186    4.278457    2.228543
 H         -6.511942    3.875838    0.176188
 C         -5.047780    2.485178    3.463989
 H         -4.745017    0.648253    2.398632
 C         -4.064488    3.453700   -2.729655
 H         -3.835879    3.097867   -0.628916
 C         -5.847686    2.283669   -3.817937
 H         -7.026933    0.983937   -2.587420
 C        -10.912475   -1.625654    0.089251
 C        -10.989989    0.767757   -0.021358
 C         -5.510448    3.805288    3.435294
 H         -6.417904    5.298575    2.171524
 H         -4.630988    2.083549    4.384984
 C         -4.780120    3.185079   -3.903617
 H         -3.222999    4.142380   -2.759880
 H         -6.420782    2.045932   -4.711504
 C        -11.777420   -0.365450    0.023323
 C        -11.215212   -2.354297    1.417913
 C        -11.069987   -2.540790   -1.142789
 S        -11.894337    2.262404   -0.057352
 C         -5.414498    4.698558    4.649813
 C         -4.427209    3.862259   -5.207092
 C        -13.155204   -0.038696    0.033696
 C        -12.290839   -3.251206    1.504020
 C        -10.505100   -2.074332    2.592280
 C        -10.599698   -3.862894   -1.113897
 C        -11.597611   -2.063125   -2.348149
 C        -13.392017    1.340601   -0.013300
 H         -6.266649    5.384230    4.711069
 H         -5.380583    4.113870    5.574898
 H         -4.505691    5.314432    4.619483
 H         -4.725172    3.253964   -6.067474
 H         -4.934847    4.831592   -5.302232
 H         -3.351116    4.052660   -5.280629
 S        -14.654341   -0.916353    0.071689
 C        -12.633264   -3.850580    2.715346
 H        -12.863683   -3.495785    0.614553
 C        -10.850970   -2.677694    3.802034
 H         -9.674263   -1.376876    2.570321
 C        -10.660608   -4.672284   -2.246406
 H        -10.189946   -4.270516   -0.194575
 C        -11.659466   -2.878780   -3.479537
 H        -11.961185   -1.042431   -2.412906
 C        -14.753568    1.703498   -0.020083
 C        -15.593508    0.601363    0.020779
 C        -11.917256   -3.580618    3.888705
 H        -13.473655   -4.540571    2.746327
 H        -10.277574   -2.438913    4.695128
 C        -11.196220   -4.198693   -3.452188
 H        -10.286308   -5.692245   -2.190466
 H        -12.077564   -2.476785   -4.399779
 H        -15.126043    2.717004   -0.052097
 C        -17.049308    0.604940    0.030855
 C        -12.267998   -4.257936    5.192692
 C        -11.293193   -5.091325   -4.667090
 C        -17.836682    1.825769   -0.004079
 C        -17.816151   -0.545176    0.073731
 H        -11.751513   -5.222177    5.291816
 H        -11.978376   -3.644868    6.052563
 H        -13.342469   -4.458214    5.263323
 H        -11.332221   -4.506009   -5.591562
 H        -10.438852   -5.773957   -4.731782
 H        -12.199692   -5.710460   -4.634178
 N        -17.352789    3.067987   -0.049328
 C        -19.294022    1.788520    0.008359
 C        -19.241967   -0.570501    0.085755
 F        -17.230874   -1.758206    0.108628
 S        -18.639074    4.093080   -0.073483
 N        -19.862728    2.996827   -0.027521
 C        -20.004267    0.557157    0.054603
 F        -19.805932   -1.786204    0.130076
 H        -21.086113    0.518598    0.064547
       192
T1: Total Energy = -8755.45841170
 C          4.761514    0.795141    0.051287
 C          5.666054    1.878471    0.019813
 C          6.994415    1.463788    0.025873
 C          7.185816    0.063621    0.063245
 C          8.536848   -0.307831    0.049243
 C          9.376068    0.803420    0.010607
 C         10.757897    0.411880    0.000532
 C         10.787753   -1.009266    0.057552
 C         11.995135   -1.688383    0.048286
 S          5.652103   -0.764164    0.094027
 S          8.528845    2.332511   -0.012029
 C          9.357661   -1.598318    0.101363
 H          5.321923    2.901681   -0.006314
 H         12.031217   -2.773013    0.085331
 C         19.149129   -1.313918   -0.101146
 C         18.309843   -2.394016   -0.064463
 C         16.947364   -1.985205   -0.057519
 C         16.761242   -0.598585   -0.090211
 C         15.395357   -0.220022   -0.067081
 C         14.565963   -1.322677   -0.025655
 C         13.175624   -0.932077   -0.012887
 C         13.146846    0.488863   -0.070348
 C         11.942042    1.168735   -0.060166
 S         18.303248    0.218680   -0.131365
 S         15.418517   -2.849515   -0.010346
 C         14.579661    1.073074   -0.114885
 H         18.651708   -3.422151   -0.044587
 H         11.905744    2.253381   -0.097485
 C          9.038189   -2.321858    1.428976
 C          7.928505   -3.175856    1.519633
 C          7.573189   -3.767223    2.730912
 C          8.309547   -3.531780    3.899296
 C          9.410270   -2.671924    3.807787
 C          9.769240   -2.076178    2.597956
 H          7.338275   -3.392328    0.634345
 H          6.705887   -4.422720    2.766141
 H         10.000140   -2.460527    4.696993
 H         10.626652   -1.411755    2.572647
 C          9.160116   -2.499159   -1.135415
 C          9.571588   -3.840653   -1.113318
 C          9.476365   -4.639955   -2.250767
 C          8.964585   -4.135944   -3.454400
 C          8.561157   -2.796259   -3.475005
 C          8.657248   -1.990894   -2.338952
 H          9.961351   -4.271303   -0.195877
 H          9.804323   -5.675980   -2.200133
 H          8.162940   -2.370666   -4.393380
 H          8.338859   -0.954914   -2.398839
 C         14.781620    1.969434    1.124484
 C         14.368625    3.310712    1.110568
 C         14.468392    4.105078    2.251020
 C         14.986650    3.596285    3.450010
 C         15.392452    2.257289    3.462330
 C         15.291945    1.456812    2.322978
 H         13.973319    3.744961    0.197142
 H         14.138075    5.140663    2.206879
 H         15.795162    1.828077    4.377125
 H         15.611238    0.420722    2.375920
 C         14.900394    1.800595   -1.439956
 C         16.007520    2.658087   -1.526852
 C         16.363757    3.253539   -2.736187
 C         15.631067    3.018379   -3.906644
 C         14.533288    2.153960   -3.819415
 C         14.173442    1.554875   -2.611754
 H         16.594424    2.875056   -0.639413
 H         17.228131    3.913218   -2.767907
 H         13.945987    1.942638   -4.710352
 H         13.318093    0.887703   -2.589594
 C          7.942150   -4.200517    5.203045
 H          8.411767   -5.189671    5.288907
 H          8.272016   -3.608591    6.063163
 C          8.828953   -5.016116   -4.674583
 H          8.833892   -4.425521   -5.596514
 H          9.642537   -5.747253   -4.733535
 C         15.125271    4.470985    4.673854
 H         14.303198    5.191334    4.746456
 H         15.137955    3.874966    5.592188
 C         15.997289    3.692295   -5.208083
 H         15.694011    3.089114   -6.070255
 H         15.502326    4.668082   -5.303734
 H          6.860093   -4.348313    5.285761
 H          7.887313   -5.580900   -4.654093
 H         16.059215    5.048185    4.646334
 H         17.075954    3.868664   -5.277865
 H         20.230897   -1.318601   -0.118055
 C          3.342830    0.865041    0.052909
 C          2.603753    2.113621    0.018440
 C          2.504623   -0.290441    0.085858
 N          3.159121    3.322468   -0.016401
 C          1.140571    2.145367    0.018077
 C          1.134534   -0.260874    0.085627
 F          3.077048   -1.515267    0.119622
 S          1.922062    4.442804   -0.047595
 N          0.638050    3.376908   -0.017049
 C          0.347512    0.929798    0.052540
 F          0.509320   -1.459883    0.119175
 C         -1.072888    0.921704    0.051229
 C         -1.929206    2.043015    0.018797
 S         -2.030903   -0.597427    0.096858
 C         -3.274539    1.686669    0.026732
 H         -1.541314    3.050377   -0.008991
 C         -3.526867    0.296438    0.066440
 S         -4.768747    2.622175   -0.009693
 C         -4.893508   -0.015045    0.055703
 C         -5.682401    1.132105    0.018107
 C         -5.770463   -1.267914    0.111714
 C         -7.080124    0.802834    0.014963
 C         -7.173401   -0.616014    0.074059
 C         -5.618311   -2.177083   -1.125451
 C         -5.478065   -2.005771    1.437698
 C         -8.228501    1.612875   -0.040113
 C         -8.409797   -1.239427    0.072219
 C         -6.100314   -3.495042   -1.103781
 C         -5.085660   -1.697110   -2.327622
 C         -4.411963   -2.914169    1.521337
 C         -6.187863   -1.723296    2.611478
 C         -9.463185    0.988459   -0.042668
 H         -8.142966    2.694671   -0.078347
 C         -9.555455   -0.429662    0.016929
 H         -8.495417   -2.321225    0.110267
 C         -6.045138   -4.298766   -2.240573
 H         -6.513998   -3.904217   -0.186939
 C         -5.029384   -2.507326   -3.463099
 H         -4.712183   -0.679704   -2.387213
 C         -4.078786   -3.522573    2.730523
 H         -3.839242   -3.159981    0.632222
 C         -5.851306   -2.336265    3.819094
 H         -7.010904   -1.016526    2.591688
 C        -10.867623    1.637748   -0.081313
 C        -10.960370   -0.757764    0.012410
 C         -5.503948   -3.823363   -3.443133
 H         -6.427826   -5.315869   -2.190335
 H         -4.606230   -2.104173   -4.380430
 C         -4.794746   -3.250586    3.903608
 H         -3.245299   -4.220820    2.760232
 H         -6.423846   -2.095368    4.712114
 C        -11.740919    0.383217   -0.027083
 C        -11.160852    2.376729   -1.406539
 C        -11.022992    2.545235    1.156686
 S        -11.876155   -2.246191    0.035686
 C         -5.412526   -4.710425   -4.662447
 C         -4.453093   -3.937151    5.205080
 C        -13.119159    0.066775   -0.043957
 C        -12.227903    3.284059   -1.489355
 C        -10.451331    2.096146   -2.581087
 C        -10.542883    3.863962    1.138352
 C        -11.557873    2.062617    2.356799
 C        -13.365969   -1.312138   -0.006977
 H         -6.270046   -5.388797   -4.729491
 H         -5.371453   -4.120808   -5.584070
 H         -4.508758   -5.333647   -4.633147
 H         -4.748162   -3.329942    6.067176
 H         -4.970545   -4.901895    5.293637
 H         -3.379198   -4.138309    5.281321
 S        -14.612006    0.955560   -0.081372
 C        -12.562192    3.893376   -2.697970
 H        -12.799965    3.529252   -0.599584
 C        -10.789013    2.709635   -3.787998
 H         -9.627221    1.390639   -2.562040
 C        -10.601502    4.665602    2.276425
 H        -10.127357    4.275206    0.223253
 C        -11.617548    2.870748    3.493688
 H        -11.928977    1.044131    2.413578
 C        -14.729428   -1.665031   -0.007344
 C        -15.561141   -0.555829   -0.043759
 C        -11.846439    3.623240   -3.871459
 H        -13.395750    4.591653   -2.726605
 H        -10.216147    2.470482   -4.681282
 C        -11.144486    4.187347    3.477112
 H        -10.219519    5.683090    2.228939
 H        -12.041473    2.465337    4.409714
 H        -15.109685   -2.675858    0.016596
 C        -17.016759   -0.549436   -0.058612
 C        -12.187995    4.311374   -5.172143
 C        -11.238508    5.071957    4.698028
 C        -17.812428   -1.765018   -0.034439
 C        -17.775037    0.606751   -0.096394
 H        -11.662054    5.271149   -5.264275
 H        -11.902275    3.700672   -6.034963
 H        -13.260332    4.522333   -5.243759
 H        -11.285874    4.480363    5.618074
 H        -10.378792    5.746941    4.770665
 H        -12.139710    5.698786    4.666032
 N        -17.337555   -3.010886    0.003923
 C        -19.269256   -1.717079   -0.051391
 C        -19.200490    0.642433   -0.112873
 F        -17.180677    1.815257   -0.121359
 S        -18.631410   -4.026824    0.016868
 N        -19.846791   -2.921426   -0.025608
 C        -19.970455   -0.480316   -0.091681
 F        -19.755695    1.862197   -0.150925
 H        -21.051986   -0.434118   -0.104861
       192
S1: Total Energy = -8755.44162128
 C          4.768345    0.795511    0.060791
 C          5.660597    1.873276    0.031022
 C          6.997146    1.458510    0.035721
 C          7.187248    0.062760    0.070547
 C          8.540960   -0.308951    0.055337
 C          9.379757    0.802509    0.017776
 C         10.758779    0.412291    0.003938
 C         10.790352   -1.012063    0.057998
 C         11.995883   -1.689878    0.043984
 S          5.652266   -0.760842    0.100194
 S          8.528859    2.329402   -0.002053
 C          9.360267   -1.599807    0.103497
 H          5.313144    2.895610    0.006683
 H         12.032701   -2.774551    0.078247
 C         19.144485   -1.311463   -0.124883
 C         18.304925   -2.392748   -0.088181
 C         16.944131   -1.984284   -0.076122
 C         16.758359   -0.595459   -0.104911
 C         15.395725   -0.216678   -0.077214
 C         14.563602   -1.321858   -0.036275
 C         13.177745   -0.932138   -0.018388
 C         13.147723    0.491039   -0.072382
 C         11.943859    1.170065   -0.057936
 S         18.300910    0.221484   -0.148942
 S         15.415703   -2.849217   -0.026921
 C         14.579953    1.076029   -0.119397
 H         18.647393   -3.420660   -0.071836
 H         11.906943    2.254664   -0.093131
 C          9.042196   -2.324820    1.430522
 C          7.933480   -3.180072    1.520752
 C          7.579100   -3.772341    2.731809
 C          8.315258   -3.536468    3.900269
 C          9.414800   -2.675017    3.809185
 C          9.772731   -2.078181    2.599656
 H          7.342902   -3.396124    0.635654
 H          6.712360   -4.428547    2.766913
 H         10.004073   -2.462795    4.698573
 H         10.628727   -1.411858    2.574952
 C          9.160983   -2.497523   -1.135152
 C          9.569370   -3.839996   -1.116372
 C          9.472066   -4.636057   -2.255909
 C          8.961150   -4.127646   -3.458093
 C          8.560840   -2.786929   -3.475226
 C          8.659123   -1.984676   -2.337226
 H          9.957945   -4.273976   -0.199982
 H          9.797326   -5.673063   -2.208037
 H          8.163112   -2.358150   -4.392298
 H          8.342596   -0.947968   -2.394202
 C         14.784944    1.969145    1.121735
 C         14.374076    3.311049    1.110893
 C         14.476059    4.102470    2.253154
 C         14.994277    3.589969    3.450607
 C         15.397636    2.250186    3.459734
 C         15.294788    1.452500    2.318695
 H         13.978624    3.748023    0.198873
 H         14.147331    5.138622    2.211682
 H         15.799858    1.818102    4.373348
 H         15.611790    0.415555    2.369646
 C         14.897623    1.804939   -1.444434
 C         16.003559    2.663857   -1.532503
 C         16.356819    3.260243   -2.742196
 C         15.622290    3.024655   -3.911485
 C         14.525714    2.158814   -3.822851
 C         14.168879    1.558511   -2.614967
 H         16.591424    2.881645   -0.645910
 H         17.220069    3.921283   -2.775106
 H         13.936971    1.947416   -4.712761
 H         13.314236    0.890464   -2.591828
 C          7.948456   -4.205891    5.203780
 H          8.417947   -5.195192    5.288778
 H          8.278809   -3.614478    6.064048
 C          8.822839   -5.004372   -4.680415
 H          8.830086   -4.411584   -5.600913
 H          9.633764   -5.738339   -4.740850
 C         15.134961    4.461555    4.676357
 H         14.313620    5.182431    4.751455
 H         15.148107    3.863323    5.593214
 C         15.985253    3.699756   -5.213138
 H         15.681399    3.096602   -6.075095
 H         15.488403    4.674708   -5.307170
 H          6.866424   -4.353513    5.286889
 H          7.879117   -5.565705   -4.661472
 H         16.069400    5.037934    4.649017
 H         17.063478    3.878010   -5.284587
 H         20.226231   -1.317295   -0.144874
 C          3.329466    0.859982    0.063100
 C          2.597362    2.105200    0.030349
 C          2.510961   -0.283583    0.094260
 N          3.163648    3.320104   -0.003456
 C          1.141427    2.136917    0.030077
 C          1.124757   -0.254493    0.094197
 F          3.073749   -1.514351    0.126358
 S          1.919340    4.434408   -0.033266
 N          0.628379    3.374153   -0.003983
 C          0.355504    0.923161    0.063075
 F          0.509756   -1.460232    0.126355
 C         -1.082814    0.920354    0.061528
 C         -1.928686    2.036489    0.029866
 S         -2.033577   -0.596650    0.105979
 C         -3.280327    1.680533    0.037456
 H         -1.537309    3.042715    0.002638
 C         -3.531627    0.293015    0.076459
 S         -4.771862    2.618275    0.000818
 C         -4.898748   -0.018429    0.065633
 C         -5.688988    1.130166    0.028119
 C         -5.774550   -1.271382    0.119733
 C         -7.081334    0.802586    0.022241
 C         -7.177356   -0.620336    0.080161
 C         -5.621136   -2.179391   -1.117985
 C         -5.483116   -2.008405    1.446342
 C         -8.231424    1.614382   -0.034386
 C         -8.411381   -1.241737    0.075188
 C         -6.101365   -3.498011   -1.097510
 C         -5.089069   -1.697039   -2.319475
 C         -4.418702   -2.918673    1.530495
 C         -6.191227   -1.721953    2.620197
 C         -9.464382    0.991651   -0.039795
 H         -8.144472    2.695985   -0.071799
 C         -9.559023   -0.429837    0.018519
 H         -8.498489   -2.323415    0.111907
 C         -6.044754   -4.300385   -2.235146
 H         -6.514385   -3.908788   -0.181083
 C         -5.031233   -2.506085   -3.455661
 H         -4.716592   -0.679194   -2.377956
 C         -4.086153   -3.525791    2.740438
 H         -3.846488   -3.166393    0.641647
 C         -5.855380   -2.333849    3.828477
 H         -7.012246   -1.012783    2.600255
 C        -10.868202    1.641725   -0.081281
 C        -10.957140   -0.756601    0.010706
 C         -5.503876   -3.822862   -3.437058
 H         -6.425774   -5.318159   -2.186078
 H         -4.608200   -2.101473   -4.372363
 C         -4.800811   -3.250439    3.913580
 H         -3.253866   -4.225391    2.770798
 H         -6.426415   -2.089905    4.721606
 C        -11.741749    0.387811   -0.029513
 C        -11.158998    2.379184   -1.407918
 C        -11.025785    2.548850    1.156608
 S        -11.873263   -2.245584    0.032455
 C         -5.410583   -4.708595   -4.657144
 C         -4.459419   -3.935374    5.215913
 C        -13.115377    0.071607   -0.048386
 C        -12.224786    3.287783   -1.493043
 C        -10.448584    2.095263   -2.581115
 C        -10.547549    3.868203    1.138125
 C        -11.559684    2.064871    2.356574
 C        -13.362677   -1.310353   -0.012063
 H         -6.266402   -5.389068   -4.724575
 H         -5.371027   -4.118088   -5.578245
 H         -4.505221   -5.329499   -4.628402
 H         -4.754047   -3.326799    6.077170
 H         -4.977396   -4.899725    5.305732
 H         -3.385634   -4.136975    5.292232
 S        -14.609542    0.960020   -0.088286
 C        -12.556794    3.895456   -2.703041
 H        -12.797274    3.535536   -0.604282
 C        -10.783946    2.707413   -3.789297
 H         -9.625354    1.388768   -2.560329
 C        -10.607667    4.669530    2.276286
 H        -10.132363    4.280127    0.223214
 C        -11.621021    2.872878    3.493417
 H        -11.928882    1.045667    2.413742
 C        -14.723289   -1.663135   -0.014783
 C        -15.556942   -0.552437   -0.052442
 C        -11.840040    3.622342   -3.875306
 H        -13.389191    4.594973   -2.733741
 H        -10.210345    2.466137   -4.681482
 C        -11.150150    4.190277    3.476840
 H        -10.227172    5.687535    2.228984
 H        -12.044208    2.466678    4.409389
 H        -15.104435   -2.673626    0.008375
 C        -17.010543   -0.548454   -0.069428
 C        -12.179162    4.308836   -5.177408
 C        -11.245593    5.074645    4.697744
 C        -17.804033   -1.765616   -0.045727
 C        -17.770621    0.608782   -0.109224
 H        -11.651789    5.267743   -5.270079
 H        -11.893046    3.696521   -6.038919
 H        -13.251112    4.521096   -5.250605
 H        -11.293017    4.482946    5.617688
 H        -10.386516    5.750346    4.770819
 H        -12.147328    5.700639    4.665056
 N        -17.327498   -3.010537   -0.005657
 C        -19.261125   -1.718925   -0.065236
 C        -19.194117    0.642256   -0.128186
 F        -17.175559    1.817121   -0.133820
 S        -18.621093   -4.028928    0.005808
 N        -19.837852   -2.923979   -0.039586
 C        -19.962636   -0.482988   -0.107580
 F        -19.752857    1.860695   -0.168039
 H        -21.044207   -0.437747   -0.122705
