        98
S0: Total Energy = -4794.70191583
 C         18.431626    3.654239    1.120809
 C         18.836686    2.426274    0.674534
 C         17.751122    1.579049    0.314768
 C         16.509658    2.159490    0.488836
 S         16.705098    3.800758    1.108603
 H         17.869560    0.572297   -0.060937
 C         15.180094    1.612352    0.242858
 C         14.967112    0.330943   -0.385643
 N         15.926494   -0.499572   -0.806837
 S         15.185141   -1.817763   -1.443970
 N         13.618964   -1.385575   -1.211209
 C         13.621874   -0.185170   -0.623518
 C         12.450000    0.565760   -0.239987
 C         12.716672    1.789347    0.357546
 C         14.018811    2.285659    0.591578
 C         11.096360    0.077308   -0.457647
 C         10.655097   -1.022799   -1.169981
 C          9.247438   -1.172687   -1.180269
 C          8.570589   -0.198688   -0.475459
 S          9.714045    0.928645    0.229341
 H         11.335027   -1.691383   -1.679562
 H         19.038727    4.485251    1.454407
 H         19.877704    2.130377    0.603225
 H          8.741575   -1.964087   -1.722384
 C          7.127062   -0.050636   -0.274813
 C          6.297319   -1.181951   -0.367985
 C          6.555033    1.215445    0.008852
 C          4.924168   -1.018762   -0.194559
 H          6.729619   -2.161476   -0.540443
 C          5.188417    1.367854    0.198993
 H          7.197937    2.089081    0.057937
 C          4.350919    0.249955    0.100631
 H          4.776019    2.349506    0.415559
 C          2.703654   -1.350179    0.027251
 C          2.930997    0.038468    0.239949
 C          1.426405   -1.903976    0.091485
 C          1.839650    0.871472    0.515328
 C          0.339468   -1.058548    0.375445
 H          1.261432   -2.959921   -0.093119
 C          0.564971    0.325991    0.582936
 H          1.985588    1.934559    0.685987
 H         -0.275129    0.969515    0.825981
 N          3.914659   -1.971259   -0.251667
 C          4.102472   -3.389364   -0.489013
 H          4.961693   -3.538817   -1.147080
 H          4.268315   -3.943029    0.443511
 H          3.221468   -3.796309   -0.991062
 H         14.092792    3.255120    1.075418
 H         11.888467    2.420238    0.666322
 C         -1.009499   -1.623661    0.459988
 C         -1.386800   -2.916419    0.759530
 S         -2.431067   -0.647354    0.142014
 C         -2.786359   -3.129431    0.746150
 H         -0.673580   -3.692389    1.015278
 C         -3.522634   -1.999960    0.437682
 H         -3.252493   -4.079566    0.967381
 C         -4.963676   -1.823158    0.340421
 C         -5.892628   -2.925886    0.412533
 C         -5.554421   -0.579456    0.162812
 N         -5.564416   -4.210553    0.580870
 C         -7.333451   -2.715115    0.299486
 C         -6.947019   -0.376159    0.048573
 H         -4.924162    0.303227    0.107925
 S         -6.961333   -5.072611    0.597820
 N         -8.035513   -3.848768    0.390742
 C         -7.887769   -1.395376    0.109880
 H         -7.282494    0.646051   -0.099268
 C         -9.317401   -1.150580   -0.004519
 C        -10.366527   -2.047642   -0.091295
 S         -9.944780    0.496586   -0.059997
 C        -11.637004   -1.435236   -0.214028
 H        -10.213160   -3.117820   -0.079631
 C        -11.601089   -0.056172   -0.221518
 H        -12.556584   -1.998974   -0.326676
 C        -12.716281    0.888292   -0.327938
 C        -14.000957    0.488034    0.079531
 C        -12.519676    2.196385   -0.837430
 C        -15.054047    1.392652   -0.047747
 H        -14.153511   -0.495183    0.511298
 C        -13.570432    3.098206   -0.944476
 H        -11.529793    2.492822   -1.171162
 C        -14.855483    2.708961   -0.549665
 N        -16.394970    1.226428    0.272087
 H        -13.392214    4.095244   -1.338235
 C        -16.142763    3.364823   -0.513460
 C        -17.064008    2.416756    0.011434
 C        -16.981924    0.037548    0.858328
 C        -16.592633    4.642923   -0.868529
 C        -18.413693    2.734885    0.194956
 H        -16.466015   -0.849652    0.482697
 H        -16.920645    0.046494    1.953869
 H        -18.031502   -0.034792    0.563722
 C        -17.936950    4.960501   -0.693886
 H        -15.900482    5.377135   -1.272537
 C        -18.833960    4.013819   -0.166468
 H        -19.115718    2.018408    0.609953
 H        -18.298235    5.948646   -0.963883
 H        -19.877953    4.284078   -0.032996
        98
T1: Total Energy = -4794.65966117
 C        -18.310318    3.893153   -1.048705
 C        -18.746593    2.619831   -0.804709
 C        -17.687405    1.714980   -0.513663
 C        -16.434645    2.297130   -0.536879
 S        -16.586154    4.012493   -0.925573
 H        -17.832229    0.666512   -0.293559
 C        -15.124048    1.702207   -0.301059
 C        -14.952266    0.331529    0.116677
 N        -15.936916   -0.546858    0.332020
 S        -15.238568   -1.961434    0.783906
 N        -13.660488   -1.514276    0.724860
 C        -13.625300   -0.232504    0.347829
 C        -12.431001    0.558262    0.168289
 C        -12.658135    1.867725   -0.230665
 C        -13.942313    2.411250   -0.458240
 C        -11.094254    0.024087    0.382452
 C        -10.699836   -1.183823    0.928844
 C         -9.296250   -1.351979    0.995264
 C         -8.575260   -0.284389    0.500124
 S         -9.671352    0.958442   -0.074017
 H        -11.411162   -1.917850    1.281250
 H        -18.893360    4.771554   -1.291430
 H        -19.791781    2.331360   -0.831047
 H         -8.826491   -2.228512    1.427773
 C         -7.122757   -0.125533    0.409058
 C         -6.303288   -1.267838    0.377947
 C         -6.530911    1.163031    0.352947
 C         -4.922170   -1.097054    0.309399
 H         -6.747894   -2.256840    0.376040
 C         -5.156284    1.326732    0.266846
 H         -7.167392    2.041429    0.399126
 C         -4.328701    0.195986    0.242494
 H         -4.728784    2.324655    0.224812
 C         -2.694144   -1.416036    0.164428
 C         -2.907080   -0.007355    0.152069
 C         -1.420899   -1.968154    0.079834
 C         -1.798073    0.845908    0.062331
 C         -0.310057   -1.102219   -0.013881
 H         -1.280021   -3.042596    0.097486
 C         -0.525920    0.303952   -0.018810
 H         -1.931053    1.924032    0.048660
 H          0.324708    0.972691   -0.107076
 N         -3.920797   -2.058593    0.277893
 C         -4.124050   -3.494667    0.278222
 H         -5.033681   -3.733861    0.833516
 H         -4.211980   -3.895849   -0.738951
 H         -3.286392   -3.983623    0.781623
 H        -13.984491    3.449285   -0.774571
 H        -11.811469    2.531874   -0.376872
 C          1.030443   -1.653914   -0.108124
 C          1.411821   -2.979243   -0.325018
 S          2.460574   -0.645457    0.055506
 C          2.790672   -3.190251   -0.366000
 H          0.694431   -3.778584   -0.471411
 C          3.555657   -2.022780   -0.180130
 H          3.259881   -4.149484   -0.532107
 C          4.962177   -1.855759   -0.162981
 C          5.888843   -2.955422   -0.331771
 C          5.559739   -0.560356    0.027113
 N          5.547816   -4.228761   -0.517680
 C          7.331973   -2.731948   -0.308209
 C          6.910141   -0.351656    0.048450
 H          4.907721    0.297468    0.158881
 S          6.966099   -5.106570   -0.656724
 N          8.047656   -3.841952   -0.477113
 C          7.876825   -1.404779   -0.116073
 H          7.268149    0.662121    0.198333
 C          9.268655   -1.137697   -0.091077
 C         10.356718   -2.021293   -0.218289
 S          9.886279    0.513549    0.119530
 C         11.605508   -1.400392   -0.143843
 H         10.207066   -3.083373   -0.350600
 C         11.558528   -0.018835    0.043075
 H         12.537725   -1.950902   -0.200008
 C         12.665811    0.916046    0.162078
 C         13.964426    0.513577   -0.214573
 C         12.461543    2.235497    0.650087
 C         15.010132    1.422107   -0.084386
 H         14.134732   -0.475559   -0.624013
 C         13.507396    3.137972    0.765222
 H         11.466008    2.541022    0.957174
 C         14.801232    2.746073    0.396881
 N         16.356745    1.254545   -0.378718
 H         13.320671    4.139852    1.141872
 C         16.085223    3.402970    0.373818
 C         17.017882    2.449524   -0.122857
 C         16.955532    0.058270   -0.938367
 C         16.525656    4.688048    0.719179
 C         18.369617    2.769273   -0.287833
 H         16.445408   -0.825453   -0.546840
 H         16.898767    0.045381   -2.033955
 H         18.004077    0.000668   -0.637725
 C         17.871121    5.006258    0.562684
 H         15.824720    5.425472    1.101264
 C         18.779426    4.054135    0.063150
 H         19.080819    2.049699   -0.680965
 H         18.225999    5.998713    0.824852
 H         19.824688    4.325770   -0.056307
        98
S1: Total Energy = -4794.63713811
 C        -18.261240    4.093597   -0.645506
 C        -18.716245    2.804879   -0.574505
 C        -17.670706    1.853944   -0.415639
 C        -16.408157    2.415751   -0.366104
 S        -16.535468    4.170762   -0.518114
 H        -17.829879    0.787412   -0.339819
 C        -15.108280    1.776051   -0.218645
 C        -14.954593    0.354816   -0.021016
 N        -15.950735   -0.534368    0.047480
 S        -15.271827   -2.011925    0.276625
 N        -13.687048   -1.578444    0.298197
 C        -13.635668   -0.254346    0.126712
 C        -12.432075    0.542320    0.080694
 C        -12.642592    1.904000   -0.110173
 C        -13.916202    2.489798   -0.255078
 C        -11.105724   -0.029623    0.218666
 C        -10.727423   -1.328076    0.528659
 C         -9.332124   -1.518303    0.589437
 C         -8.589255   -0.378320    0.327459
 S         -9.669454    0.964037   -0.013684
 H        -11.451166   -2.109077    0.715290
 H        -18.832160    5.004963   -0.763501
 H        -19.765887    2.538398   -0.633671
 H         -8.880786   -2.469058    0.849645
 C         -7.142486   -0.220415    0.306908
 C         -6.315532   -1.360212    0.232482
 C         -6.546852    1.072017    0.361251
 C         -4.936887   -1.185595    0.229509
 H         -6.753168   -2.348388    0.149983
 C         -5.174634    1.241893    0.343043
 H         -7.185001    1.946876    0.437612
 C         -4.340745    0.112450    0.274689
 H         -4.748235    2.239914    0.386323
 C         -2.704349   -1.492175    0.154808
 C         -2.925668   -0.081910    0.229215
 C         -1.430654   -2.033432    0.081256
 C         -1.814162    0.780040    0.241798
 C         -0.315350   -1.159886    0.093337
 H         -1.287513   -3.105383    0.016499
 C         -0.541784    0.248100    0.176400
 H         -1.952278    1.855919    0.298599
 H          0.308622    0.922494    0.180486
 N         -3.932824   -2.141311    0.173657
 C         -4.132754   -3.575210    0.078420
 H         -5.050724   -3.850692    0.602485
 H         -4.202385   -3.909599   -0.963742
 H         -3.302199   -4.093171    0.563600
 H        -13.946659    3.565200   -0.402583
 H        -11.787636    2.572529   -0.147335
 C          1.023660   -1.693963    0.018602
 C          1.424405   -3.024052   -0.127265
 S          2.446877   -0.662103    0.109454
 C          2.808359   -3.215848   -0.166985
 H          0.720962   -3.844416   -0.210674
 C          3.551214   -2.033569   -0.051833
 H          3.294350   -4.174761   -0.277147
 C          4.973608   -1.845563   -0.050391
 C          5.898000   -2.945009   -0.175051
 C          5.546347   -0.557893    0.076072
 N          5.553576   -4.236670   -0.304268
 C          7.331380   -2.713377   -0.168926
 C          6.913643   -0.337650    0.082063
 H          4.893437    0.304232    0.173967
 S          6.982920   -5.101304   -0.410727
 N          8.065807   -3.831497   -0.293129
 C          7.862893   -1.379712   -0.038416
 H          7.262048    0.685444    0.185879
 C          9.273866   -1.110585   -0.031639
 C         10.351948   -1.995580   -0.123404
 S          9.887452    0.544288    0.101978
 C         11.606857   -1.371791   -0.082830
 H         10.198872   -3.062076   -0.208448
 C         11.560957    0.014164    0.041700
 H         12.537496   -1.926753   -0.119506
 C         12.665796    0.952804    0.115512
 C         13.971360    0.527509   -0.216975
 C         12.457991    2.302712    0.516382
 C         15.014885    1.441178   -0.130207
 H         14.146420   -0.485799   -0.559590
 C         13.502410    3.209299    0.589285
 H         11.458612    2.628163    0.788178
 C         14.802083    2.794194    0.264455
 N         16.365739    1.254877   -0.394941
 H         13.312124    4.233086    0.899337
 C         16.085024    3.446246    0.218758
 C         17.024496    2.462314   -0.204663
 C         16.969729    0.025557   -0.871694
 C         16.522814    4.750883    0.490333
 C         18.378711    2.770877   -0.369388
 H         16.455454   -0.831712   -0.430068
 H         16.923463   -0.056384   -1.964716
 H         18.015114   -0.012377   -0.557591
 C         17.870274    5.057378    0.333944
 H         15.817437    5.510743    0.815903
 C         18.784673    4.074954   -0.092595
 H         19.094944    2.028215   -0.706389
 H         18.223406    6.063716    0.539223
 H         19.831869    4.338381   -0.213228
