       112
S0: Total Energy = -7055.50599562
 C        -14.921685    4.164866   -0.300873
 C        -13.649889    3.644340   -0.523178
 C        -13.436633    2.281429   -0.244014
 C        -14.517962    1.490988    0.239519
 C        -15.789931    2.010583    0.458277
 C        -16.003251    3.372883    0.182675
 C        -17.215025    4.142076    0.308482
 H        -18.156945    3.721648    0.640573
 C        -17.053451    5.442252   -0.046987
 S        -15.421016    5.831936   -0.561359
 C        -12.364698    0.196509   -0.027561
 S        -14.027499   -0.175043    0.494882
 C        -12.233480    1.517974   -0.376548
 H        -11.301846    1.947889   -0.725792
 H        -17.802146    6.223904   -0.044624
 C        -11.320553   -0.809065   -0.012977
 C        -11.392829   -2.197939   -0.026512
 S         -9.653381   -0.266461    0.016494
 C        -10.108991   -2.799491   -0.030744
 C         -9.042539   -1.917472   -0.015700
 H         -9.968118   -3.871002   -0.052476
 C         -7.622796   -2.226827   -0.016014
 C         -6.627746   -1.267429   -0.016249
 C         -7.096356   -3.576231   -0.016071
 C         -5.237144   -1.535525   -0.015807
 C         -5.660454   -3.853142   -0.014709
 C         -4.670121   -2.796146   -0.013770
 F         -6.944478    0.041196   -0.014985
 F         -4.456575   -0.438477   -0.017818
 N         -7.837877   -4.683957   -0.017182
 N         -5.383917   -5.157139   -0.015545
 C         -3.237282   -3.036840   -0.009977
 C         -2.574985   -4.251897    0.017612
 S         -2.056815   -1.731347   -0.051308
 C         -1.159795   -4.170762    0.015366
 H         -3.104120   -5.194056    0.046549
 C         -0.710042   -2.854315   -0.010119
 C          0.632012   -2.308959    0.000904
 C          0.996926   -1.019691    0.305820
 S          2.045928   -3.290297   -0.461638
 C          2.397580   -0.762381    0.183805
 H          0.286704   -0.261237    0.614065
 C          3.115960   -1.915788   -0.244908
 C          3.097649    0.435988    0.425012
 C          4.491760   -1.913454   -0.445566
 C          4.473421    0.438384    0.224127
 C          5.191899   -0.715277   -0.204059
 S          5.543494    1.813343    0.438860
 C          6.592659   -0.457627   -0.327322
 C          6.956755    0.832094   -0.024670
 H          7.303437   -1.215235   -0.636298
 C          8.298786    1.378571   -0.014169
 C          8.747990    2.693336   -0.076391
 S          9.644911    0.258201    0.079327
 C         10.163627    2.775104   -0.066601
 C         10.825356    1.562103    0.007196
 H         10.693103    3.715926   -0.121601
 C         12.259102    1.321899    0.032253
 C         12.825822    0.064140    0.099610
 C         13.249626    2.377446   -0.011383
 C         14.217876   -0.203877    0.123083
 F         12.045738   -1.032187    0.148902
 C         14.685445    2.100160    0.012921
 N         12.973412    3.679918   -0.076977
 C         15.212314    0.753102    0.082652
 F         14.531167   -1.511633    0.189985
 N         15.427384    3.207089   -0.035589
 C         16.635904    0.444862    0.107225
 C         17.700628    1.326181    0.070627
 S         17.246473   -1.212032    0.192405
 C         18.985174    0.707658    0.109056
 H         17.559542    2.396808    0.017169
 C         18.883726   -0.658398    0.175465
 H         19.690481   -1.379454    0.215992
 S         -6.812462   -5.965544   -0.017144
 S         14.402641    4.486794   -0.105653
 C        -12.652722   -3.025882   -0.054872
 H        -13.172076   -3.012851    0.911390
 H        -13.361205   -2.671163   -0.810554
 H        -12.412368   -4.068617   -0.282025
 C         -0.298688   -5.407711    0.056888
 H          0.205833   -5.587042   -0.900583
 H          0.476937   -5.343447    0.827211
 H         -0.913462   -6.286590    0.271731
 C          7.886243    3.927288   -0.166879
 H          7.105671    3.829060   -0.928418
 H          7.387788    4.148321    0.785125
 H          8.499294    4.796136   -0.423590
 C         20.282102    1.472250    0.079621
 H         20.367240    2.075712   -0.832289
 H         20.357148    2.160715    0.930141
 H         21.141710    0.796652    0.117137
 O          5.147919   -3.060455   -0.829451
 O          2.441021    1.582857    0.808333
 O        -12.626157    4.452174   -0.962182
 O        -16.812208    1.197495    0.894278
 C        -17.025686    1.218453    2.315234
 H        -17.850356    0.529883    2.508853
 H        -16.131178    0.881039    2.851486
 H        -17.297032    2.223429    2.658615
 C        -12.427714    4.444936   -2.385880
 H        -12.170419    3.441029   -2.742872
 H        -13.324198    4.797983   -2.908467
 H        -11.597780    5.126841   -2.580045
 C          5.362199   -3.180611   -2.246130
 H          5.881062   -4.129326   -2.394940
 H          4.408910   -3.193352   -2.786913
 H          5.982495   -2.358893   -2.622019
 C          2.229604    1.705161    2.225314
 H          3.183967    1.718842    2.764143
 H          1.710915    2.654031    2.373702
 H          1.610155    0.883907    2.603626
       112
T1: Total Energy = -7055.46512282
 C         14.886956    4.172924    0.158830
 C         13.582586    3.690748    0.129174
 C         13.395666    2.292433    0.137285
 C         14.534414    1.435503    0.184481
 C         15.836221    1.918494    0.213848
 C         16.024219    3.314619    0.206220
 C         17.253818    4.060000    0.253804
 H         18.231488    3.596869    0.314966
 C         17.056875    5.404349    0.228941
 S         15.366863    5.865605    0.147929
 C         12.335549    0.184010    0.116317
 S         14.064422   -0.256255    0.200086
 C         12.176844    1.559217    0.089738
 H         11.208486    2.040890    0.021690
 H         17.810972    6.180348    0.254841
 C         11.290419   -0.794642    0.087647
 C         11.342974   -2.202248    0.088462
 S          9.619427   -0.234120    0.045432
 C         10.072663   -2.786368    0.053844
 C          8.989619   -1.888483    0.026228
 H          9.913968   -3.855080    0.047903
 C          7.603824   -2.196621   -0.009465
 C          6.585344   -1.198511   -0.035027
 C          7.082606   -3.552105   -0.022703
 C          5.238643   -1.455866   -0.068503
 C          5.644669   -3.828148   -0.058713
 C          4.659238   -2.760410   -0.082439
 F          6.945448    0.104421   -0.026227
 F          4.423232   -0.378106   -0.089600
 N          7.829344   -4.651909   -0.003811
 N          5.357711   -5.125726   -0.065675
 C          3.260468   -2.984408   -0.114842
 C          2.584421   -4.222476   -0.135600
 S          2.063649   -1.679751   -0.134274
 C          1.191789   -4.150924   -0.163814
 H          3.128875   -5.155692   -0.129291
 C          0.716372   -2.820421   -0.165378
 C         -0.611866   -2.302786   -0.187173
 C         -0.973930   -0.960874   -0.174267
 S         -2.058612   -3.349143   -0.237223
 C         -2.372420   -0.730334   -0.205900
 H         -0.249561   -0.156337   -0.126363
 C         -3.118320   -1.948460   -0.224667
 C         -3.063204    0.503632   -0.203842
 C         -4.503966   -1.979909   -0.229045
 C         -4.450546    0.470218   -0.205235
 C         -5.194416   -0.746546   -0.223581
 S         -5.512148    1.867692   -0.194422
 C         -6.598200   -0.512688   -0.255298
 C         -6.951972    0.820160   -0.241342
 H         -7.323331   -1.316273   -0.310382
 C         -8.291951    1.360086   -0.236483
 C         -8.753059    2.664730   -0.403052
 S         -9.630950    0.251031    0.010482
 C        -10.165673    2.744630   -0.341438
 C        -10.818026    1.542383   -0.127615
 H        -10.701991    3.675949   -0.456737
 C        -12.247397    1.305626   -0.017367
 C        -12.805276    0.058584    0.189868
 C        -13.242939    2.353055   -0.112636
 C        -14.193094   -0.206218    0.300830
 F        -12.018616   -1.027893    0.303871
 C        -14.674714    2.078952    0.002412
 N        -12.975398    3.644094   -0.308600
 C        -15.192354    0.743643    0.218327
 F        -14.497875   -1.502248    0.500947
 N        -15.422700    3.176854   -0.112254
 C        -16.611506    0.438951    0.335647
 C        -17.680598    1.313498    0.267018
 S        -17.210859   -1.203172    0.599724
 C        -18.959269    0.701367    0.420357
 H        -17.546383    2.374654    0.109304
 C        -18.849053   -0.653080    0.606781
 H        -19.650283   -1.367225    0.749668
 S          6.799086   -5.959997   -0.029610
 S        -14.407912    4.445076   -0.344816
 C         12.595393   -3.038351    0.120893
 H         13.243736   -2.837073   -0.739735
 H         13.186351   -2.854546    1.025792
 H         12.337108   -4.100664    0.102597
 C          0.335934   -5.389440   -0.188349
 H         -0.331462   -5.441621    0.679728
 H         -0.291167   -5.434773   -1.086431
 H          0.967670   -6.281716   -0.177699
 C         -7.906310    3.889662   -0.635780
 H         -7.287308    4.131423    0.236715
 H         -7.232396    3.767451   -1.490960
 H         -8.544821    4.754974   -0.834784
 C        -20.259398    1.460023    0.380520
 H        -20.297769    2.224300    1.166237
 H        -20.389097    1.976323   -0.578414
 H        -21.113516    0.790955    0.520379
 O         -5.179202   -3.176359   -0.280040
 O         -2.390031    1.699687   -0.156333
 O         12.516439    4.553840    0.051756
 O         16.901779    1.050992    0.292037
 C         17.523970    0.753383   -0.969215
 H         18.333274    0.054332   -0.750606
 H         16.810153    0.286718   -1.657716
 H         17.934418    1.658965   -1.430441
 C         11.897182    4.860961    1.313460
 H         11.493209    3.957723    1.784456
 H         12.612114    5.338112    1.993327
 H         11.083767    5.553467    1.090257
 C         -5.630543   -3.665487    0.995421
 H         -6.138069   -4.610496    0.794390
 H         -4.783794   -3.837393    1.669594
 H         -6.330704   -2.963352    1.461864
 C         -1.932477    2.185682   -1.431459
 H         -2.776715    2.357414   -2.108701
 H         -1.424424    3.130112   -1.229661
 H         -1.231685    1.481455   -1.893378
       112
S1: Total Energy = -7055.44810891
 C         14.887742    4.175020    0.025019
 C         13.583138    3.693260    0.006548
 C         13.393918    2.295234    0.029649
 C         14.533108    1.439346    0.081086
 C         15.835471    1.921929    0.098515
 C         16.025312    3.317564    0.074832
 C         17.255134    4.063135    0.108300
 H         18.233037    3.600131    0.168399
 C         17.058969    5.407514    0.071479
 S         15.368080    5.867976   -0.004489
 C         12.332269    0.188677    0.034615
 S         14.060378   -0.251383    0.116176
 C         12.174182    1.560681   -0.005960
 H         11.205334    2.041015   -0.077125
 H         17.813426    6.183455    0.085652
 C         11.287881   -0.799707    0.023768
 C         11.344625   -2.198255    0.018375
 S          9.616409   -0.247593    0.016911
 C         10.065430   -2.789432    0.005343
 C          8.992962   -1.899500    0.001805
 H          9.910234   -3.858861   -0.002155
 C          7.586109   -2.205525   -0.009269
 C          6.586198   -1.218584   -0.012597
 C          7.070001   -3.556586   -0.017039
 C          5.222411   -1.481318   -0.022252
 C          5.634952   -3.832275   -0.026886
 C          4.658802   -2.767921   -0.029547
 F          6.931741    0.090355   -0.005840
 F          4.415262   -0.395590   -0.024370
 N          7.824565   -4.660491   -0.015674
 N          5.341835   -5.137136   -0.032610
 C          3.236684   -3.002547   -0.038319
 C          2.571751   -4.231322   -0.049153
 S          2.052302   -1.698933   -0.035613
 C          1.168813   -4.158223   -0.054410
 H          3.116649   -5.164308   -0.052942
 C          0.699323   -2.833662   -0.047162
 C         -0.626233   -2.310577   -0.049225
 C         -0.985516   -0.960864   -0.033147
 S         -2.070762   -3.348669   -0.075944
 C         -2.374647   -0.728128   -0.047063
 H         -0.254667   -0.162109    0.005545
 C         -3.128331   -1.945076   -0.050509
 C         -3.065650    0.515952   -0.035353
 C         -4.508918   -1.973637   -0.023295
 C         -4.447407    0.486399   -0.008781
 C         -5.199241   -0.729608   -0.008807
 S         -5.503735    1.889541    0.013608
 C         -6.589716   -0.495958   -0.019065
 C         -6.946161    0.850545   -0.005989
 H         -7.318925   -1.296881   -0.052416
 C         -8.276837    1.376628   -0.005811
 C         -8.739681    2.700970   -0.013186
 S         -9.627102    0.246758    0.005848
 C        -10.145951    2.774447   -0.012317
 C        -10.807036    1.550600   -0.002899
 H        -10.682805    3.712373   -0.019075
 C        -12.234261    1.311996    0.000046
 C        -12.800428    0.045642    0.016981
 C        -13.223997    2.369633   -0.014151
 C        -14.185598   -0.223495    0.020355
 F        -12.013118   -1.046316    0.031945
 C        -14.658887    2.088566   -0.010791
 N        -12.948525    3.673211   -0.031686
 C        -15.182907    0.738668    0.007211
 F        -14.502805   -1.532372    0.038209
 N        -15.403612    3.194907   -0.025765
 C        -16.602233    0.428291    0.010997
 C        -17.669577    1.310604   -0.002355
 S        -17.213056   -1.231965    0.034714
 C        -18.952008    0.690788    0.006045
 H        -17.528379    2.382360   -0.017888
 C        -18.849114   -0.677969    0.026047
 H        -19.656117   -1.399877    0.036097
 S          6.788473   -5.963086   -0.026112
 S        -14.381329    4.480550   -0.042842
 C         12.596380   -3.037253    0.023098
 H         13.235731   -2.825995   -0.842006
 H         13.199599   -2.869450    0.923311
 H         12.335795   -4.098924   -0.007320
 C          0.314289   -5.397076   -0.066711
 H         -0.340044   -5.451263    0.811672
 H         -0.327260   -5.442698   -0.955038
 H          0.946042   -6.289291   -0.066773
 C         -7.884558    3.939618   -0.022337
 H         -7.241754    3.999635    0.863946
 H         -7.232414    3.980011   -0.902760
 H         -8.516130    4.831925   -0.035083
 C        -20.250222    1.453512   -0.005761
 H        -20.331762    2.112246    0.867309
 H        -20.330216    2.087484   -0.897107
 H        -21.108607    0.775514    0.002996
 O         -5.190242   -3.161576   -0.057220
 O         -2.392029    1.707492   -0.001109
 O         12.518691    4.559464   -0.073806
 O         16.902002    1.055119    0.179674
 C         17.508112    0.735362   -1.083568
 H         18.320622    0.040444   -0.863265
 H         16.786000    0.256351   -1.754780
 H         17.912114    1.632854   -1.566023
 C         11.890873    4.858709    1.185016
 H         11.483723    3.952993    1.648371
 H         12.601260    5.331895    1.872584
 H         11.078740    5.552603    0.960867
 C         -5.642485   -3.642627    1.223662
 H         -6.164253   -4.579694    1.024559
 H         -4.792859   -3.825580    1.890508
 H         -6.329015   -2.929355    1.692404
 C         -1.885018    2.162900   -1.271238
 H         -2.706766    2.335291   -1.974957
 H         -1.368887    3.102133   -1.067960
 H         -1.182250    1.439968   -1.698365
