       132
S0: Total Energy = -7120.71496375
 C        -13.664273   -4.496970    0.447231
 C        -12.405372   -3.930979    0.609979
 C        -12.271930   -2.548540    0.392902
 C        -13.421937   -1.783170    0.042093
 C        -14.702420   -2.329450   -0.102194
 C        -14.811158   -3.726892    0.094054
 C        -15.977071   -4.568222   -0.038861
 H        -16.954127   -4.191822   -0.316728
 C        -15.724954   -5.878721    0.207441
 S        -14.049370   -6.205134    0.610863
 C        -11.291213   -0.415057    0.264059
 S        -12.994796   -0.078997   -0.121701
 C        -11.089761   -1.751220    0.501956
 H        -10.122383   -2.169356    0.755019
 H        -16.425702   -6.702704    0.168738
 C        -10.286753    0.629345    0.250107
 C        -10.397864    2.007768    0.387398
 S         -8.606539    0.159593    0.032352
 C         -9.135316    2.657672    0.336166
 C         -8.049789    1.821693    0.162374
 H         -9.024918    3.728991    0.436777
 C         -6.632773    2.138284    0.084116
 C         -5.650068    1.157252    0.057435
 C         -6.135616    3.492302    0.022459
 C         -4.268040    1.428610   -0.028865
 C         -4.705178    3.773359   -0.062967
 C         -3.730831    2.708068   -0.088485
 N         -6.885449    4.598410    0.032681
 N         -4.431977    5.080596   -0.110718
 C         -2.299481    2.950679   -0.164864
 C         -1.610169    4.134815   -0.338150
 S         -1.155556    1.622995   -0.028881
 C         -0.195664    4.012014   -0.380682
 H         -2.117632    5.084381   -0.441819
 C          0.224426    2.693929   -0.238001
 C          1.548465    2.108315   -0.238983
 C          1.864064    0.779427   -0.384946
 S          3.009582    3.089994    0.018272
 C          3.261314    0.496957   -0.297848
 H          1.120140    0.007620   -0.544923
 C          4.046542    1.666094   -0.074978
 C          3.900240   -0.754526   -0.378432
 C          5.435442    1.650254    0.088499
 C          5.277435   -0.792430   -0.212138
 C          6.057887    0.378548    0.017800
 S          6.264922   -2.242120   -0.250834
 C          7.448878    0.056594    0.131060
 C          7.739851   -1.281042    0.014972
 H          8.210955    0.806803    0.305379
 C          9.051826   -1.892329    0.049209
 C          9.442755   -3.211071    0.251859
 S         10.455406   -0.860093   -0.193942
 C         10.854978   -3.364829    0.227490
 C         11.570099   -2.203901    0.009502
 H         11.341619   -4.319140    0.377242
 C         13.007660   -1.994040   -0.063679
 C         13.571682   -0.731810   -0.186762
 C         13.960650   -3.077425   -0.016756
 C         14.961340   -0.493038   -0.266176
 C         15.397766   -2.829144   -0.097413
 N         13.660073   -4.374557    0.097620
 C         15.923958   -1.491353   -0.227670
 N         16.124331   -3.949869   -0.039752
 C         17.351577   -1.207103   -0.311425
 C         18.428803   -2.066742   -0.251588
 S         17.927685    0.448580   -0.519222
 C         19.703800   -1.430382   -0.366263
 H         18.305637   -3.134412   -0.127586
 C         19.580669   -0.073963   -0.515263
 H         20.372052    0.656344   -0.625269
 S         -5.864329    5.880490   -0.055282
 S         15.076293   -5.204264    0.103531
 C        -11.676990    2.779615    0.592076
 H        -12.263147    2.851077   -0.332591
 H        -12.319171    2.318785    1.349563
 H        -11.452458    3.800249    0.915830
 C          0.693856    5.213298   -0.578700
 H          1.252476    5.463312    0.331654
 H          1.426529    5.056128   -1.377340
 H          0.091008    6.087018   -0.842922
 C          8.525595   -4.383067    0.494547
 H          7.780043   -4.169794    1.267749
 H          7.981102   -4.671295   -0.413263
 H          9.105197   -5.252826    0.817427
 C         21.013869   -2.171467   -0.326935
 H         21.133895   -2.716301    0.617462
 H         21.076749   -2.910120   -1.135383
 H         21.861049   -1.486975   -0.430277
 C          6.216490    2.892335    0.336979
 C          6.197802    3.958642   -0.582202
 C          6.992569    3.040941    1.494355
 C          6.923252    5.119820   -0.351689
 H          5.618636    3.867456   -1.496647
 C          7.727539    4.202866    1.740113
 H          7.015107    2.240128    2.228230
 C          7.694781    5.252164    0.813216
 H          6.913384    5.937755   -1.065509
 H          8.309116    4.279169    2.651503
 C        -15.885253   -1.492610   -0.442705
 C        -15.918172   -0.721233   -1.620033
 C        -17.003624   -1.445426    0.400302
 C        -17.020245    0.062099   -1.936144
 H        -15.074395   -0.750067   -2.303449
 C        -18.119461   -0.662539    0.095881
 H        -17.001231   -2.020851    1.321934
 C        -18.131298    0.098596   -1.079609
 H        -17.046308    0.650382   -2.848219
 H        -18.960513   -0.649355    0.779398
 H         15.275284    0.542495   -0.357983
 H         12.922384    0.138164   -0.219436
 H         -3.600640    0.572148   -0.050451
 H         -5.942821    0.112736    0.109594
 O        -11.316508   -4.709267    0.929827
 O          3.184671   -1.914980   -0.564832
 O        -19.162113    0.896781   -1.477956
 O          8.369773    6.428704    0.947456
 C        -11.040100   -4.797827    2.337183
 H        -11.886670   -5.238153    2.876618
 H        -10.166861   -5.445487    2.435116
 H        -10.815250   -3.810390    2.756919
 C          2.885386   -2.217907   -1.937571
 H          3.805314   -2.343565   -2.520168
 H          2.327424   -3.156035   -1.926551
 H          2.272490   -1.430548   -2.391233
 C        -20.316779    0.971382   -0.649565
 H        -20.073174    1.369287    0.343471
 H        -21.002205    1.653947   -1.154273
 H        -20.795844   -0.009607   -0.539753
 C          9.169139    6.619412    2.109405
 H          9.609964    7.612309    2.008197
 H          8.563601    6.581927    3.023522
 H          9.969103    5.871186    2.173083
       132
T1: Total Energy = -7120.67617220
 C        -13.592914   -4.520169   -0.121284
 C        -12.320228   -3.964367   -0.105083
 C        -12.215152   -2.559726   -0.116515
 C        -13.403750   -1.770176   -0.121953
 C        -14.692229   -2.310682   -0.118293
 C        -14.777301   -3.725255   -0.130122
 C        -15.955479   -4.555390   -0.176736
 H        -16.962987   -4.158495   -0.205481
 C        -15.676039   -5.884425   -0.192583
 S        -13.959731   -6.239512   -0.162358
 C        -11.252632   -0.407930   -0.091180
 S        -12.999873   -0.052766   -0.089401
 C        -11.029945   -1.772349   -0.110112
 H        -10.039401   -2.211361   -0.131537
 H        -16.381335   -6.704515   -0.231442
 C        -10.254748    0.619977   -0.080692
 C        -10.369776    2.024261   -0.058409
 S         -8.556055    0.141262   -0.090933
 C         -9.126987    2.669151   -0.050367
 C         -8.005887    1.822930   -0.064942
 H         -9.015849    3.744553   -0.033634
 C         -6.626027    2.145712   -0.059925
 C         -5.618552    1.125097   -0.076004
 C         -6.133068    3.507473   -0.037015
 C         -4.274573    1.388437   -0.068521
 C         -4.698954    3.789622   -0.028787
 C         -3.726942    2.714723   -0.043525
 N         -6.889802    4.602265   -0.021332
 N         -4.413417    5.088962   -0.007512
 C         -2.330168    2.936461   -0.033482
 C         -1.612104    4.146820   -0.001644
 S         -1.183060    1.588530   -0.061790
 C         -0.220883    4.022481    0.002874
 H         -2.124569    5.098650    0.019805
 C          0.208416    2.676629   -0.025483
 C          1.517974    2.108970   -0.027272
 C          1.831845    0.757917   -0.024102
 S          3.000886    3.099024   -0.035255
 C          3.222648    0.479600   -0.030813
 H          1.080405   -0.022237    0.008984
 C          4.025370    1.662022   -0.031049
 C          3.855323   -0.782262    0.001772
 C          5.419283    1.653047    0.019765
 C          5.239402   -0.810828    0.057947
 C          6.036004    0.373244    0.065281
 S          6.221736   -2.262704    0.124696
 C          7.427149    0.057073    0.097179
 C          7.713080   -1.290465    0.132932
 H          8.197874    0.818568    0.096017
 C          9.023074   -1.897605    0.156991
 C          9.417641   -3.224252    0.313873
 S         10.429235   -0.854866   -0.034624
 C         10.828439   -3.375134    0.285862
 C         11.543496   -2.206162    0.110686
 H         11.315783   -4.334255    0.396674
 C         12.980032   -1.994890    0.039315
 C         13.542193   -0.732464   -0.095755
 C         13.934974   -3.075934    0.101994
 C         14.931124   -0.491316   -0.169827
 C         15.371772   -2.825065    0.025646
 N         13.637098   -4.372382    0.229234
 C         15.895852   -1.487445   -0.115684
 N         16.100661   -3.943287    0.098609
 C         17.322741   -1.200892   -0.195454
 C         18.401597   -2.058038   -0.124623
 S         17.896391    0.454383   -0.413275
 C         19.675540   -1.420078   -0.238954
 H         18.280060   -3.124960    0.007087
 C         19.550063   -0.064920   -0.398733
 H         20.340474    0.666115   -0.510906
 S         -5.862376    5.915960    0.002171
 S         15.055310   -5.198715    0.250410
 C        -11.661525    2.799137   -0.043036
 H        -12.271848    2.594602   -0.930274
 H        -12.272057    2.559638    0.835328
 H        -11.453302    3.872372   -0.021644
 C          0.681325    5.227782    0.038055
 H          1.333306    5.224922    0.919173
 H          1.327553    5.280522   -0.845914
 H          0.082543    6.142137    0.068156
 C          8.505121   -4.408725    0.504836
 H          7.836048   -4.279217    1.363022
 H          7.876355   -4.588436   -0.375536
 H          9.095921   -5.312889    0.677008
 C         20.987059   -2.157896   -0.188632
 H         21.104993   -2.694016    0.760981
 H         21.054211   -2.903501   -0.990291
 H         21.833063   -1.472479   -0.295192
 C          6.219304    2.907383    0.039194
 C          6.123452    3.846807   -1.005096
 C          7.089054    3.194832    1.099879
 C          6.864618    5.020648   -0.986325
 H          5.470535    3.644836   -1.849416
 C          7.840527    4.371400    1.132760
 H          7.173102    2.494701    1.926431
 C          7.729974    5.293608    0.084455
 H          6.794862    5.740371   -1.796065
 H          8.495347    4.558740    1.975806
 C        -15.909817   -1.454415   -0.101839
 C        -16.155184   -0.518012   -1.124052
 C        -16.848827   -1.553215    0.933432
 C        -17.288749    0.283644   -1.107659
 H        -15.454875   -0.429978   -1.949707
 C        -17.993512   -0.753631    0.963799
 H        -16.679376   -2.259048    1.741916
 C        -18.218117    0.173304   -0.061779
 H        -17.479706    1.000186   -1.900575
 H        -18.690709   -0.857158    1.787154
 H         15.243323    0.543692   -0.272350
 H         12.891366    0.135517   -0.146112
 H         -3.590897    0.545052   -0.080494
 H         -5.933021    0.086047   -0.094503
 O        -11.200701   -4.761556   -0.122827
 O          3.127976   -1.947629    0.030701
 O        -19.296351    1.003560   -0.135914
 O          8.412574    6.470549    0.010771
 C        -10.650005   -5.051227    1.173428
 H        -11.378406   -5.579693    1.799052
 H         -9.783880   -5.691852    0.998228
 H        -10.332608   -4.132718    1.680406
 C          2.689199   -2.414819   -1.256975
 H          3.545439   -2.625681   -1.907738
 H          2.133366   -3.335462   -1.071128
 H          2.035329   -1.680992   -1.741504
 C        -20.271199    0.938577    0.898963
 H        -19.837361    1.189731    1.874891
 H        -21.030573    1.677872    0.639801
 H        -20.734135   -0.054735    0.952174
 C          9.303614    6.801513    1.070279
 H          9.733412    7.769088    0.806858
 H          8.774143    6.887031    2.027341
 H         10.106912    6.060177    1.164778
       132
S1: Total Energy = -7120.65731860
 C        -13.630415   -4.506784   -0.111243
 C        -12.354524   -3.958996   -0.093518
 C        -12.239289   -2.554654   -0.092941
 C        -13.424039   -1.759025   -0.087614
 C        -14.715803   -2.291706   -0.085764
 C        -14.810555   -3.705828   -0.110374
 C        -15.993026   -4.529050   -0.161424
 H        -16.998505   -4.126490   -0.184704
 C        -15.721504   -5.859888   -0.188607
 S        -14.006830   -6.224266   -0.164913
 C        -11.263704   -0.409946   -0.049904
 S        -13.007978   -0.044759   -0.039222
 C        -11.049501   -1.773485   -0.082746
 H        -10.061137   -2.217061   -0.111277
 H        -16.431604   -6.675560   -0.232415
 C        -10.261960    0.620502   -0.033417
 C        -10.371423    2.015657    0.009731
 S         -8.565162    0.140402   -0.065218
 C         -9.115963    2.659522    0.016443
 C         -8.011188    1.814579   -0.019879
 H         -9.002365    3.734469    0.047899
 C         -6.607634    2.129911   -0.023725
 C         -5.621566    1.121692   -0.063640
 C         -6.115761    3.485129    0.013279
 C         -4.258637    1.387567   -0.067678
 C         -4.683502    3.764200    0.008940
 C         -3.722255    2.691772   -0.032598
 N         -6.875824    4.586722    0.054170
 N         -4.391587    5.070624    0.046533
 C         -2.302709    2.924557   -0.037977
 C         -1.598410    4.128965   -0.006486
 S         -1.163173    1.582707   -0.091074
 C         -0.198149    4.008760   -0.021429
 H         -2.113881    5.078682    0.027937
 C          0.231367    2.669880   -0.065374
 C          1.537823    2.103671   -0.088426
 C          1.854387    0.745040   -0.092936
 S          3.015682    3.090041   -0.117536
 C          3.235009    0.469256   -0.125157
 H          1.100700   -0.031617   -0.042392
 C          4.043024    1.652662   -0.133026
 C          3.870510   -0.801316   -0.102676
 C          5.432008    1.643774   -0.090810
 C          5.249114   -0.830385   -0.052643
 C          6.051587    0.354478   -0.050139
 S          6.229590   -2.286226   -0.002818
 C          7.429479    0.041471   -0.042625
 C          7.720911   -1.319548   -0.012347
 H          8.202594    0.799930   -0.065673
 C          9.023088   -1.908611    0.008443
 C          9.426034   -3.252197    0.045548
 S         10.432600   -0.846456   -0.010320
 C         10.828611   -3.393720    0.057503
 C         11.546926   -2.204992    0.029516
 H         11.321829   -4.355643    0.085732
 C         12.977072   -1.991714    0.028571
 C         13.540289   -0.716978   -0.034882
 C         13.931047   -3.074257    0.093549
 C         14.923681   -0.471441   -0.036859
 C         15.368436   -2.816115    0.091632
 N         13.631895   -4.374222    0.161635
 C         15.891043   -1.472635    0.024051
 N         16.099992   -3.933364    0.157922
 C         17.314585   -1.179584    0.019067
 C         18.395540   -2.038590    0.077687
 S         17.890849    0.488209   -0.072171
 C         19.668554   -1.393075    0.051376
 H         18.272274   -3.111637    0.138394
 C         19.543618   -0.029521   -0.028251
 H         20.335554    0.707617   -0.064174
 S         -5.841126    5.889127    0.084922
 S         15.054321   -5.200012    0.217851
 C        -11.656796    2.801415    0.047689
 H        -12.275256    2.620216   -0.839261
 H        -12.265164    2.552095    0.925025
 H        -11.439183    3.872427    0.087773
 C          0.698519    5.217267    0.010221
 H          1.364983    5.209960    0.880915
 H          1.331128    5.280717   -0.883406
 H          0.097258    6.129141    0.057550
 C          8.511259   -4.447473    0.072023
 H          7.855352   -4.442011    0.950652
 H          7.868395   -4.490868   -0.815166
 H          9.098954   -5.368936    0.101941
 C         20.980935   -2.129020    0.105047
 H         21.064705   -2.724367    1.022379
 H         21.082291   -2.821612   -0.739360
 H         21.826840   -1.435972    0.075246
 C          6.237063    2.891755   -0.078362
 C          6.103241    3.852370   -1.099819
 C          7.148287    3.155607    0.954371
 C          6.848318    5.022983   -1.086212
 H          5.420494    3.667727   -1.924064
 C          7.901337    4.330365    0.982736
 H          7.259894    2.441209    1.765147
 C          7.753762    5.273606   -0.042852
 H          6.751045    5.757977   -1.879053
 H          8.585974    4.501247    1.805240
 C        -15.928226   -1.428562   -0.059040
 C        -16.167980   -0.478028   -1.069551
 C        -16.868513   -1.534687    0.974412
 C        -17.297196    0.329529   -1.043940
 H        -15.466463   -0.383391   -1.893404
 C        -18.008832   -0.729213    1.014112
 H        -16.703247   -2.251132    1.774371
 C        -18.227823    0.211342   -0.000115
 H        -17.483567    1.057008   -1.827966
 H        -18.706919   -0.838840    1.835944
 H         15.239324    0.566135   -0.090345
 H         12.886802    0.148810   -0.089079
 H         -3.581360    0.538907   -0.099207
 H         -5.931736    0.081424   -0.092810
 O        -11.241953   -4.766658   -0.120552
 O          3.146152   -1.964137   -0.070435
 O        -19.301892    1.048268   -0.064735
 O          8.434960    6.448948   -0.118928
 C        -10.671442   -5.043599    1.169489
 H        -11.392972   -5.559324    1.813653
 H         -9.812536   -5.692386    0.988246
 H        -10.339398   -4.121453    1.660080
 C          2.624822   -2.394596   -1.342177
 H          3.440546   -2.600443   -2.044141
 H          2.068643   -3.311865   -1.143394
 H          1.954609   -1.641857   -1.770709
 C        -20.276855    0.976332    0.969331
 H        -19.841651    1.213428    1.948190
 H        -21.032276    1.722799    0.719190
 H        -20.745303   -0.014999    1.010978
 C          9.366252    6.760088    0.912756
 H          9.787236    7.731556    0.650116
 H          8.872415    6.829192    1.889743
 H         10.170699    6.015961    0.962983
