       124
S0: Total Energy = -7288.58141967
 C        -14.453415   -4.266412    0.557151
 C        -13.190032   -3.726576    0.767318
 C        -12.983168   -2.379714    0.421238
 C        -14.068196   -1.619748   -0.105007
 C        -15.353051   -2.138746   -0.299874
 C        -15.536035   -3.502105    0.031105
 C        -16.721312   -4.314471   -0.110366
 H        -17.657751   -3.939231   -0.505091
 C        -16.542625   -5.598585    0.290839
 S        -14.919512   -5.933811    0.864417
 C        -11.908314   -0.305611    0.154415
 S        -13.559052    0.041870   -0.409380
 C        -11.781687   -1.614009    0.546710
 H        -10.856226   -2.033403    0.923904
 H        -17.271348   -6.398799    0.280408
 C        -10.863514    0.699238    0.117071
 C        -10.935133    2.087861    0.120610
 S         -9.197693    0.154825    0.071667
 C         -9.650857    2.688612    0.105782
 C         -8.585202    1.805527    0.085404
 H         -9.508881    3.760134    0.118891
 C         -7.165202    2.113645    0.068137
 C         -6.171103    1.153312    0.058328
 C         -6.637360    3.462451    0.058451
 C         -4.780346    1.419914    0.039695
 C         -5.201220    3.737906    0.038779
 C         -4.211958    2.679898    0.027771
 N         -7.377706    4.570951    0.066096
 N         -4.923412    5.041609    0.032886
 C         -2.779124    2.919055    0.005098
 C         -2.115719    4.133322   -0.025832
 S         -1.599637    1.612081    0.022365
 C         -0.700754    4.050729   -0.044415
 H         -2.643986    5.076273   -0.041726
 C         -0.251682    2.733601   -0.032352
 C          1.089144    2.186052   -0.065294
 C          1.445368    0.890902   -0.351916
 S          2.515540    3.170101    0.336434
 C          2.847962    0.636772   -0.262446
 H          0.727554    0.123188   -0.616442
 C          3.594310    1.793199    0.110726
 C          3.524011   -0.580186   -0.469990
 C          4.978710    1.792375    0.307191
 C          4.897977   -0.601482   -0.274930
 C          5.639274    0.554378    0.109105
 S          5.926555   -2.011048   -0.454130
 C          7.035903    0.257035    0.223032
 C          7.366159   -1.050426   -0.038657
 H          7.772382    0.999941    0.505305
 C          8.694914   -1.628222   -0.040965
 C          9.113308   -2.952005    0.045528
 S         10.067254   -0.542384   -0.160032
 C         10.526416   -3.067685    0.032432
 C         11.216612   -1.872524   -0.067464
 H         11.033566   -4.019623    0.103714
 C         12.655458   -1.667411   -0.102712
 C         13.251919   -0.425101   -0.196116
 C         13.620750   -2.745461   -0.043320
 C         14.649860   -0.191201   -0.230179
 C         15.062718   -2.503267   -0.078665
 N         13.313774   -4.039485    0.047658
 C         15.621339   -1.170801   -0.175646
 N         15.778189   -3.626618   -0.012661
 C         17.051791   -0.897181   -0.211479
 C         18.095453   -1.802709   -0.162199
 S         17.701159    0.742828   -0.330330
 C         19.394188   -1.215768   -0.217286
 H         17.929222   -2.868457   -0.087783
 C         19.324893    0.150786   -0.309138
 H         20.148271    0.851612   -0.366351
 S         -6.351065    5.851503    0.050183
 S         14.723374   -4.879834    0.085574
 C        -12.195170    2.915275    0.158599
 H        -12.712428    2.916079   -0.808874
 H        -12.905206    2.548546    0.906853
 H        -11.955757    3.954730    0.401614
 C          0.159615    5.288069   -0.090228
 H          0.694341    5.449796    0.853731
 H          0.910780    5.237480   -0.885549
 H         -0.461096    6.170613   -0.270186
 C          8.223236   -4.163428    0.162724
 H          7.455745   -4.037095    0.933439
 H          7.706509   -4.383895   -0.779602
 H          8.818557   -5.043732    0.422167
 C         20.672766   -2.010292   -0.178425
 H         20.748458   -2.596862    0.745276
 H         20.726855   -2.717628   -1.014931
 H         21.548046   -1.356366   -0.234054
 C          5.719592    3.017883    0.717212
 C          5.695559    4.172328   -0.082876
 C          6.454364    3.044918    1.914495
 C          6.386514    5.321299    0.304109
 H          5.145556    4.161949   -1.019615
 C          7.145483    4.193998    2.299827
 H          6.470819    2.163982    2.550086
 C          7.113560    5.335787    1.496105
 H          6.361686    6.202911   -0.330676
 H          7.704929    4.197981    3.231367
 C        -16.470602   -1.306126   -0.826549
 C        -16.372575   -0.679400   -2.079945
 C        -17.646118   -1.129643   -0.077481
 C        -17.419875    0.102645   -2.569079
 H        -15.477884   -0.820372   -2.679640
 C        -18.692781   -0.348226   -0.567701
 H        -17.730949   -1.598452    0.898949
 C        -18.582860    0.270882   -1.814928
 H        -17.328279    0.574784   -3.543502
 H        -19.592321   -0.218943    0.028151
 O        -12.164439   -4.502469    1.254868
 O          2.847165   -1.729782   -0.804210
 C        -11.991357   -4.438578    2.680597
 H        -12.892620   -4.783141    3.200563
 H        -11.156877   -5.101994    2.914727
 H        -11.752476   -3.418508    3.002787
 C          2.575691   -1.878931   -2.208360
 H          3.507140   -1.909696   -2.785187
 H          2.046101   -2.827240   -2.315362
 H          1.945568   -1.061890   -2.577720
 F         -6.489021   -0.155033    0.064374
 F         -4.001048    0.321942    0.033728
 F         12.498253    0.688619   -0.263249
 F         14.994102    1.107200   -0.323058
 H        -19.398138    0.879508   -2.196351
 H          7.652222    6.230261    1.796585
       124
T1: Total Energy = -7288.54061786
 C        -14.439630   -4.285658   -0.141896
 C        -13.140018   -3.796371   -0.122453
 C        -12.962749   -2.398635   -0.093505
 C        -14.109420   -1.549116   -0.065347
 C        -15.422582   -2.024632   -0.063692
 C        -15.581818   -3.431734   -0.113701
 C        -16.801337   -4.198632   -0.168710
 H        -17.787942   -3.751391   -0.171944
 C        -16.589749   -5.539297   -0.226170
 S        -14.894248   -5.981989   -0.227559
 C        -11.891152   -0.300073   -0.019937
 S        -13.617520    0.143744    0.008523
 C        -11.738991   -1.673820   -0.078340
 H        -10.772402   -2.161787   -0.122092
 H        -17.336615   -6.320909   -0.278536
 C        -10.841355    0.674135    0.008403
 C        -10.887576    2.080466    0.069089
 S         -9.172323    0.107394   -0.031370
 C         -9.614026    2.658915    0.081354
 C         -8.534807    1.757678    0.032866
 H         -9.450565    3.726017    0.125249
 C         -7.147069    2.060210    0.032690
 C         -6.132530    1.059149   -0.017729
 C         -6.620220    3.412524    0.083575
 C         -4.784381    1.311244   -0.018933
 C         -5.180751    3.683016    0.081802
 C         -4.199537    2.612485    0.029976
 N         -7.362811    4.514201    0.135378
 N         -4.888319    4.978506    0.132067
 C         -2.799449    2.831205    0.028408
 C         -2.118545    4.065908    0.073206
 S         -1.607290    1.523695   -0.035165
 C         -0.725892    3.989857    0.059765
 H         -2.659658    5.000066    0.116482
 C         -0.255359    2.658792    0.004590
 C          1.071138    2.136647   -0.019549
 C          1.429149    0.794640   -0.030011
 S          2.520759    3.173847   -0.044409
 C          2.826413    0.562129   -0.060394
 H          0.703627   -0.009232    0.010713
 C          3.591083    1.770532   -0.064388
 C          3.499849   -0.679991   -0.047972
 C          4.984017    1.803948   -0.032152
 C          4.884502   -0.664417   -0.010448
 C          5.643127    0.544387   -0.002626
 S          5.912798   -2.084427    0.029329
 C          7.042907    0.273386    0.008674
 C          7.371998   -1.065749    0.029116
 H          7.788759    1.059247    0.001183
 C          8.701682   -1.629371    0.045231
 C          9.132994   -2.954015    0.104070
 S         10.070791   -0.530202   -0.013026
 C         10.545160   -3.057923    0.104022
 C         11.227511   -1.854798    0.045682
 H         11.059034   -4.007829    0.147600
 C         12.664176   -1.639114    0.031325
 C         13.252569   -0.390472   -0.034122
 C         13.636185   -2.711445    0.085064
 C         14.648428   -0.146118   -0.048742
 C         15.076403   -2.458167    0.070111
 N         13.337733   -4.008730    0.153049
 C         15.626394   -1.120195    0.000278
 N         15.799338   -3.577116    0.127296
 C         17.054550   -0.835967   -0.015800
 C         18.104274   -1.735124    0.029876
 S         17.693466    0.810294   -0.101394
 C         19.398999   -1.138469   -0.002074
 H         17.944891   -2.803062    0.085360
 C         19.320665    0.229093   -0.072650
 H         20.139653    0.936394   -0.109845
 S         -6.326843    5.817479    0.179458
 S         14.753171   -4.839408    0.194481
 C        -12.136193    2.921564    0.118133
 H        -12.764531    2.772546   -0.767591
 H        -12.750229    2.691344    0.996543
 H        -11.871974    3.981573    0.164919
 C          0.134485    5.224697    0.105235
 H          0.799408    5.227275    0.976622
 H          0.765071    5.315881   -0.786922
 H         -0.494178    6.117467    0.161488
 C          8.257169   -4.178946    0.166042
 H          7.598875   -4.169840    1.042449
 H          7.619651   -4.273229   -0.720925
 H          8.875364   -5.079114    0.225500
 C         20.682904   -1.924274    0.037458
 H         20.752875   -2.525626    0.952026
 H         20.751184   -2.617006   -0.810132
 H         21.553794   -1.263157    0.002318
 C          5.746170    3.083338   -0.014200
 C          5.609188    4.014478   -1.057039
 C          6.613917    3.385638    1.048761
 C          6.319860    5.215263   -1.036448
 H          4.955333    3.787469   -1.894318
 C          7.323997    4.586304    1.067622
 H          6.719563    2.680818    1.868732
 C          7.179159    5.504710    0.025323
 H          6.206280    5.921111   -1.854715
 H          7.986989    4.805785    1.900029
 C        -16.596469   -1.108300   -0.011166
 C        -16.803299   -0.147437   -1.014650
 C        -17.519016   -1.187050    1.045398
 C        -17.901619    0.711920   -0.961466
 H        -16.108334   -0.085656   -1.847254
 C        -18.616830   -0.327620    1.097236
 H        -17.364753   -1.917789    1.834484
 C        -18.811351    0.624698    0.094153
 H        -18.048876    1.445300   -1.749629
 H        -19.317428   -0.399128    1.924826
 O        -12.065409   -4.649879   -0.177464
 O          2.812871   -1.867964   -0.017260
 C        -11.500155   -4.990669    1.100910
 H        -12.240477   -5.493325    1.733563
 H        -10.671931   -5.670317    0.893504
 H        -11.125170   -4.098902    1.615662
 C          2.346757   -2.331373   -1.297726
 H          3.188386   -2.507683   -1.976973
 H          1.824818   -3.270341   -1.106562
 H          1.656305   -1.611562   -1.750857
 F         -6.498076   -0.241397   -0.068428
 F         -3.973114    0.231299   -0.071132
 F         12.491098    0.718173   -0.089943
 F         14.984521    1.155857   -0.116443
 H        -19.666419    1.293833    0.134987
 H          7.732916    6.439357    0.040504
       124
S1: Total Energy = -7288.52365157
 C        -14.431513   -4.291977   -0.116365
 C        -13.132256   -3.802226   -0.095293
 C        -12.953936   -2.404242   -0.074499
 C        -14.101701   -1.556030   -0.055206
 C        -15.414998   -2.031904   -0.055761
 C        -15.574637   -3.439387   -0.098033
 C        -16.793032   -4.207811   -0.153045
 H        -17.780086   -3.761497   -0.163308
 C        -16.580654   -5.549003   -0.200493
 S        -14.884418   -5.989814   -0.191891
 C        -11.882968   -0.306227   -0.008898
 S        -13.608652    0.136873    0.011639
 C        -11.730251   -1.677589   -0.059434
 H        -10.762830   -2.164441   -0.097515
 H        -17.326792   -6.331457   -0.250469
 C        -10.834869    0.678036    0.017549
 C        -10.886033    2.075741    0.074872
 S         -9.165429    0.120525   -0.020328
 C         -9.604517    2.661832    0.086721
 C         -8.535500    1.768915    0.040822
 H         -9.445075    3.729836    0.128578
 C         -7.127536    2.070137    0.039586
 C         -6.131215    1.080696   -0.008599
 C         -6.606658    3.418530    0.087521
 C         -4.766559    1.338857   -0.011913
 C         -5.170799    3.689436    0.083959
 C         -4.198423    2.622775    0.032537
 N         -7.357464    4.523964    0.138545
 N         -4.872850    4.992430    0.132154
 C         -2.775615    2.852842    0.027070
 C         -2.106598    4.078857    0.065792
 S         -1.595307    1.546868   -0.034974
 C         -0.703965    4.002026    0.048242
 H         -2.648515    5.012669    0.106984
 C         -0.238730    2.676962   -0.004463
 C          1.085193    2.150031   -0.033786
 C          1.441068    0.800704   -0.041188
 S          2.531419    3.179676   -0.071647
 C          2.828693    0.565937   -0.082591
 H          0.710548    0.002518    0.012477
 C          3.600755    1.773589   -0.093805
 C          3.502092   -0.685583   -0.069157
 C          4.988634    1.804401   -0.060286
 C          4.881649   -0.672924   -0.029099
 C          5.647659    0.535239   -0.025922
 S          5.905809   -2.098088    0.009033
 C          7.034545    0.264895   -0.023625
 C          7.365799   -1.087252   -0.000658
 H          7.784243    1.046627   -0.043718
 C          8.687114   -1.636806    0.013546
 C          9.125780   -2.969130    0.036650
 S         10.057737   -0.531756    0.002607
 C         10.530512   -3.068201    0.044517
 C         11.213741   -1.856699    0.028262
 H         11.050085   -4.015676    0.061961
 C         12.645133   -1.644079    0.031051
 C         13.234281   -0.388328    0.010492
 C         13.615583   -2.719321    0.055758
 C         14.624150   -0.144403    0.012633
 C         15.055424   -2.464291    0.058132
 N         13.316486   -4.017614    0.078480
 C         15.603835   -1.124243    0.035830
 N         15.779950   -3.583838    0.082435
 C         17.028642   -0.839418    0.037678
 C         18.079938   -1.740491    0.060795
 S         17.669180    0.809555    0.008820
 C         19.373362   -1.143679    0.055856
 H         17.919520   -2.809463    0.080837
 C         19.295084    0.226503    0.028635
 H         20.114812    0.933912    0.019074
 S         -6.316601    5.822396    0.179300
 S         14.734371   -4.850717    0.100918
 C        -12.134120    2.918942    0.121618
 H        -12.761520    2.773009   -0.765547
 H        -12.751660    2.690553    0.998252
 H        -11.868432    3.978710    0.169753
 C          0.154190    5.237935    0.086540
 H          0.824887    5.243750    0.953958
 H          0.779776    5.329105   -0.809663
 H         -0.474748    6.130271    0.144898
 C          8.248255   -4.192020    0.053043
 H          7.596550   -4.216292    0.934439
 H          7.603282   -4.244708   -0.832055
 H          8.863569   -5.095582    0.070034
 C         20.657689   -1.929372    0.077922
 H         20.722248   -2.559776    0.973055
 H         20.731450   -2.594296   -0.791142
 H         21.528172   -1.266927    0.069495
 C          5.757861    3.077466   -0.048651
 C          5.604572    4.015904   -1.083012
 C          6.647269    3.367454    1.000253
 C          6.321762    5.212586   -1.067763
 H          4.935687    3.796923   -1.910316
 C          7.361483    4.565349    1.014050
 H          6.763546    2.658334    1.814926
 C          7.201401    5.490894   -0.019795
 H          6.196815    5.924065   -1.879258
 H          8.039525    4.777286    1.836033
 C        -16.589370   -1.115863   -0.013626
 C        -16.789682   -0.157155   -1.020587
 C        -17.519846   -1.192604    1.036219
 C        -17.888898    0.701579   -0.977430
 H        -16.088487   -0.096548   -1.847996
 C        -18.618582   -0.333802    1.078141
 H        -17.370731   -1.921240    1.828226
 C        -18.806460    0.616159    0.071566
 H        -18.030617    1.433254   -1.768220
 H        -19.325048   -0.403830    1.900897
 O        -12.059280   -4.659450   -0.140687
 O          2.815824   -1.869466   -0.033928
 C        -11.479989   -4.967192    1.139334
 H        -12.213487   -5.453476    1.792611
 H        -10.653883   -5.652182    0.940680
 H        -11.099381   -4.063046    1.627583
 C          2.278574   -2.307611   -1.297525
 H          3.085018   -2.486265   -2.017202
 H          1.753147   -3.241020   -1.091474
 H          1.578247   -1.572090   -1.706591
 F         -6.481520   -0.226145   -0.056150
 F         -3.963297    0.251366   -0.062840
 F         12.467204    0.717789   -0.013481
 F         14.965082    1.158484   -0.010026
 H        -19.662183    1.284922    0.104664
 H          7.759290    6.423002   -0.008562
