       132
S0: Total Energy = -8197.63123074
 C        -14.486630    3.088214    0.153445
 C        -13.104593    2.854812    0.145715
 C        -12.697517    1.503362    0.026286
 C        -13.673602    0.469750   -0.088468
 C        -15.052785    0.702923   -0.079765
 C        -15.461058    2.054154    0.039716
 C        -16.801316    2.585379    0.012156
 H        -17.686523    1.969584   -0.085768
 C        -16.841054    3.938229    0.107485
 S        -15.258874    4.672739    0.236220
 C        -12.145448    3.966500    0.258255
 C        -12.092242    4.951832    1.214288
 S        -10.891215    4.237990   -0.947419
 C        -11.055408    5.906952    0.996837
 C        -10.310295    5.669483   -0.127823
 C        -16.011452   -0.410675   -0.191921
 C        -16.078002   -1.383131   -1.159719
 S        -17.244689   -0.700602    1.030440
 C        -17.108846   -2.344247   -0.937473
 C        -11.297631   -0.389061   -0.034677
 C         -9.150344    6.455460   -0.662847
 H         -9.348641    6.844944   -1.668631
 H         -8.948932    7.307165   -0.005922
 H         -8.237927    5.849836   -0.720168
 C        -18.984151   -2.920053    0.746489
 H        -19.896951   -2.317964    0.829958
 H        -19.195898   -3.762317    0.080682
 H        -18.766464   -3.324280    1.742412
 C        -17.835883   -2.123313    0.202080
 S        -12.908381   -1.115978   -0.180122
 C        -11.364582    0.975492    0.061328
 H        -10.486670    1.599154    0.178755
 H        -17.718420    4.572107    0.110522
 C        -10.125963   -1.234457   -0.029139
 C        -10.060657   -2.614584    0.021393
 S         -8.515787   -0.547916   -0.091311
 C         -8.743987   -3.122542    0.018077
 H        -10.940220   -3.247670    0.070330
 C         -7.765080   -2.143078   -0.035718
 H         -8.504550   -4.176301    0.058359
 C         -6.326589   -2.336129   -0.047201
 C         -5.398171   -1.306361   -0.102140
 C         -5.698932   -3.626455   -0.002718
 C         -3.996530   -1.484084   -0.109191
 C         -4.283293   -3.805963   -0.010072
 C         -3.353975   -2.713041   -0.062371
 F         -5.812034   -0.023079   -0.153176
 F         -3.275973   -0.344666   -0.165507
 N         -6.273137   -4.846430    0.059762
 N         -4.031057   -5.130676    0.048131
 N         -5.238803   -5.673842    0.090970
 C         -5.421897   -7.118646    0.094538
 H         -4.572395   -7.568108    0.607760
 H         -6.350641   -7.342921    0.618213
 H         -5.474932   -7.490104   -0.932736
 C         -1.912916   -2.885155   -0.065775
 C         -1.209216   -4.078627   -0.027776
 S         -0.788289   -1.527619   -0.120492
 C          0.192291   -3.915777   -0.035486
 H         -1.704116   -5.039404    0.009369
 C          0.600102   -2.595040   -0.078690
 H          0.886020   -4.749005    0.000613
 C          1.945062   -2.069270   -0.090717
 C          2.351723   -0.764457    0.013057
 S          3.322467   -3.172974   -0.255682
 C          3.772157   -0.586207   -0.031188
 H          1.658349    0.057713    0.142625
 C          4.459406   -1.829132   -0.161996
 C          4.504896    0.621778    0.093844
 C          5.853079   -1.947513   -0.164666
 C          5.898508    0.503343    0.091509
 C          3.853372    1.936275    0.222674
 C          6.585832   -0.739635   -0.038878
 C          6.504432   -3.262058   -0.294049
 S          7.035451    1.847022    0.186796
 C          4.045978    2.890631    1.192068
 S          2.708132    2.527281   -0.976904
 C          8.006471   -0.561396   -0.081436
 C          6.311699   -4.215790   -1.264040
 S          7.649464   -3.854010    0.905228
 C          8.412949    0.743308    0.023258
 C          3.280514    4.077032    0.988869
 C          2.501222    4.047433   -0.137289
 H          8.700118   -1.383361   -0.210761
 C          7.076927   -5.402462   -1.061527
 C          7.856158   -5.373690    0.064698
 C          9.757895    1.269721    0.015213
 C          1.574504    5.104787   -0.659494
 C          8.782734   -6.431477    0.586276
 C         10.165283    2.589741   -0.041488
 S         11.146615    0.203910    0.084095
 H          0.540411    4.745797   -0.725051
 H          1.589176    5.969989    0.010351
 H          1.866237    5.447433   -1.659552
 H          8.490975   -6.774656    1.586141
 H          8.767944   -7.296289   -0.084065
 H          9.816876   -6.072678    0.652015
 C         11.567122    2.753381   -0.038106
 H          9.471467    3.421949   -0.095569
 C         12.270716    1.561274    0.022336
 H         12.061946    3.713864   -0.083014
 C         13.712759    1.390053    0.037472
 C         14.355612    0.163267    0.105326
 C         14.641459    2.483117   -0.014670
 C         15.758715   -0.012984    0.119086
 F         13.635972   -0.976696    0.164265
 C         16.057398    2.304327   -0.000757
 N         14.389028    3.806940   -0.090661
 C         16.685746    1.016106    0.066916
 F         16.171434   -1.296032    0.188947
 N         16.631550    3.524581   -0.068698
 N         15.597183    4.350405   -0.122973
 C         18.128261    0.824582    0.080359
 C         15.778989    5.795213   -0.139576
 C         19.106010    1.802688    0.033366
 S         18.883448   -0.768485    0.162083
 H         16.717115    6.014455   -0.648423
 H         14.938824    6.238177   -0.673460
 H         15.812652    6.178490    0.884185
 C         20.430032    1.289157    0.061994
 H         18.866512    2.855967   -0.020184
 C         20.468433   -0.077872    0.130664
 H         21.316386    1.913366    0.032609
 H         21.335741   -0.724043    0.165041
 H        -17.309819   -3.173665   -1.608201
 H        -15.418775   -1.397762   -2.021004
 H        -12.765026    4.979196    2.064614
 H        -10.862794    6.744138    1.660296
 H          5.655409   -4.062212   -2.113904
 H          7.055737   -6.252055   -1.736739
 H          4.702354    2.737712    2.041977
 H          3.301625    4.927047    1.663554
       132
T1: Total Energy = -8197.58159771
 C         14.502125    3.044873   -0.253477
 C         13.118845    2.829719   -0.188982
 C         12.698680    1.479102   -0.062807
 C         13.668926    0.431517    0.004738
 C         15.046407    0.648288   -0.060447
 C         15.467019    1.997773   -0.187682
 C         16.812584    2.510027   -0.210231
 H         17.692650    1.881862   -0.153255
 C         16.867194    3.864205   -0.295962
 S         15.292164    4.620001   -0.353631
 C         12.171028    3.952998   -0.252316
 C         12.106920    4.960503   -1.185174
 S         10.950224    4.214326    0.990345
 C         11.089192    5.923552   -0.920880
 C         10.369198    5.670873    0.216978
 C         15.996682   -0.476217    0.004623
 C         16.095361   -1.452998    0.965246
 S         17.170851   -0.774920   -1.272664
 C         17.104132   -2.424786    0.693758
 C         11.279716   -0.403290    0.047173
 C          9.233413    6.459786    0.797423
 H          9.461540    6.824494    1.806162
 H          9.027352    7.328093    0.164115
 H          8.314825    5.864592    0.864264
 C         18.895879   -3.014972   -1.073896
 H         19.810946   -2.422938   -1.195680
 H         19.127182   -3.862198   -0.421010
 H         18.629615   -3.412730   -2.060564
 C         17.782107   -2.207437   -0.476305
 S         12.891533   -1.148191    0.116535
 C         11.365327    0.972048   -0.045487
 H         10.490478    1.606144   -0.119887
 H         17.752449    4.486066   -0.329706
 C         10.107610   -1.214060    0.088209
 C         10.018565   -2.609945    0.142840
 S          8.497214   -0.499948    0.074756
 C          8.717559   -3.099258    0.169882
 H         10.893998   -3.250767    0.158849
 C          7.721558   -2.096845    0.137923
 H          8.463015   -4.149114    0.209697
 C          6.320722   -2.286843    0.153183
 C          5.366547   -1.229020    0.121142
 C          5.680049   -3.584297    0.205472
 C          3.999126   -1.395682    0.133603
 C          4.265085   -3.759086    0.218151
 C          3.326890   -2.654508    0.180267
 F          5.812622    0.046138    0.075127
 F          3.257956   -0.266097    0.098392
 N          6.251265   -4.800147    0.240768
 N          4.007299   -5.076530    0.260839
 N          5.215474   -5.636068    0.263999
 C          5.393521   -7.072244    0.393733
 H          4.547300   -7.566263   -0.083745
 H          6.324103   -7.347732   -0.102536
 H          5.439771   -7.356951    1.449640
 C          1.927940   -2.806189    0.190411
 C          1.201781   -4.027807    0.235554
 S          0.784868   -1.444247    0.148679
 C         -0.171767   -3.872861    0.234518
 H          1.708075   -4.982478    0.265881
 C         -0.606206   -2.533587    0.188839
 H         -0.864516   -4.707453    0.263884
 C         -1.931677   -2.042014    0.175014
 C         -2.356097   -0.718855    0.105680
 S         -3.316899   -3.154423    0.250539
 C         -3.763696   -0.552618    0.114897
 H         -1.661411    0.108428    0.029120
 C         -4.454196   -1.806653    0.175020
 C         -4.503317    0.662924    0.018682
 C         -5.840576   -1.928424    0.127897
 C         -5.893360    0.537538   -0.027951
 C         -3.854906    1.981587   -0.032141
 C         -6.578938   -0.713791    0.029763
 C         -6.493280   -3.247316    0.182729
 S         -7.036716    1.878516   -0.094992
 C         -4.051915    2.991690   -0.943769
 S         -2.711435    2.507250    1.200685
 C         -7.994361   -0.547112    0.038992
 C         -6.334157   -4.237019    1.122228
 S         -7.591562   -3.794366   -1.080212
 C         -8.410811    0.762925   -0.021521
 C         -3.292817    4.167177   -0.670744
 C         -2.513636    4.075074    0.452504
 H         -8.685707   -1.377992    0.110999
 C         -7.087641   -5.416282    0.846029
 C         -7.824430   -5.345567   -0.306594
 C         -9.756132    1.275175   -0.029360
 C         -1.592733    5.104496    1.036868
 C         -8.727268   -6.384206   -0.902971
 C        -10.176695    2.594154    0.015511
 S        -11.137021    0.197011   -0.102757
 H         -0.556762    4.747697    1.080565
 H         -1.612597    6.008291    0.420284
 H         -1.885978    5.384546    2.055768
 H         -8.397520   -6.687027   -1.904044
 H         -8.733892   -7.274735   -0.267054
 H         -9.759595   -6.025405   -0.992727
 C        -11.577486    2.745578   -0.002358
 H         -9.490506    3.432733    0.068319
 C        -12.271941    1.546100   -0.062390
 H        -12.081120    3.701937    0.030958
 C        -13.710984    1.364602   -0.090746
 C        -14.344406    0.131901   -0.157694
 C        -14.648599    2.451092   -0.054013
 C        -15.745245   -0.054952   -0.184054
 F        -13.615089   -1.002422   -0.202801
 C        -16.062857    2.261190   -0.080481
 N        -14.407083    3.777051    0.016718
 C        -16.680815    0.967746   -0.146792
 F        -16.147975   -1.341316   -0.250435
 N        -16.646990    3.477277   -0.025131
 N        -15.619692    4.311496    0.034287
 C        -18.121154    0.765056   -0.172993
 C        -15.812716    5.754928    0.040943
 C        -19.106932    1.735985   -0.139796
 S        -18.863499   -0.834182   -0.254618
 H        -16.757229    5.969771    0.539746
 H        -14.981034    6.207326    0.580174
 H        -15.839717    6.132218   -0.985237
 C        -20.426477    1.212232   -0.178695
 H        -18.876005    2.791294   -0.088787
 C        -20.453764   -0.155462   -0.241516
 H        -21.317837    1.829684   -0.160596
 H        -21.315808   -0.808345   -0.281205
 H         17.325325   -3.259137    1.351874
 H         15.474837   -1.463711    1.854893
 H         12.757048    4.997329   -2.052543
 H         10.890974    6.777285   -1.561133
 H         -5.710191   -4.115033    2.001087
 H         -7.088904   -6.291056    1.488583
 H         -4.704903    2.885568   -1.803275
 H         -3.317530    5.054947   -1.294674
       132
S1: Total Energy = -8197.56267579
 C         14.470529    3.074142   -0.196218
 C         13.087845    2.849547   -0.146385
 C         12.674958    1.494018   -0.030774
 C         13.653451    0.453437    0.042275
 C         15.029323    0.680147   -0.008622
 C         15.442326    2.033896   -0.125477
 C         16.783924    2.555094   -0.129219
 H         17.667484    1.932501   -0.065055
 C         16.831222    3.910528   -0.206596
 S         15.251907    4.655498   -0.277766
 C         12.134001    3.965971   -0.213017
 C         12.085081    4.990485   -1.129067
 S         10.881548    4.198580    1.004829
 C         11.055852    5.942547   -0.871987
 C         10.310655    5.665449    0.244031
 C         15.987020   -0.437456    0.060927
 C         16.079653   -1.421562    1.014778
 S         17.181261   -0.717339   -1.202263
 C         17.099205   -2.383701    0.749587
 C         11.269629   -0.398622    0.054356
 C          9.156495    6.437303    0.810766
 H          9.358093    6.785356    1.831010
 H          8.960117    7.315502    0.188096
 H          8.240377    5.835530    0.845200
 C         18.919582   -2.946632   -0.997520
 H         19.831855   -2.347052   -1.102296
 H         19.148215   -3.797189   -0.348012
 H         18.669755   -3.338715   -1.990754
 C         17.791823   -2.151913   -0.409084
 S         12.885072   -1.131618    0.139278
 C         11.346618    0.976497   -0.031447
 H         10.467623    1.603634   -0.115444
 H         17.712720    4.538260   -0.226749
 C         10.102535   -1.223620    0.079444
 C         10.024526   -2.614720    0.115423
 S          8.488322   -0.526116    0.069126
 C          8.718916   -3.114853    0.131188
 H         10.903187   -3.251379    0.125834
 C          7.726892   -2.125176    0.108203
 H          8.473323   -4.167441    0.156463
 C          6.310147   -2.318308    0.115935
 C          5.364915   -1.274492    0.093303
 C          5.679418   -3.612987    0.150984
 C          3.984323   -1.448436    0.100417
 C          4.262469   -3.793484    0.158587
 C          3.327440   -2.695561    0.131594
 F          5.794971    0.007506    0.062592
 F          3.248011   -0.314389    0.075643
 N          6.254938   -4.830981    0.173675
 N          4.009829   -5.115473    0.185708
 N          5.220695   -5.666549    0.185907
 C          5.403525   -7.104183    0.294165
 H          4.559404   -7.593839   -0.191344
 H          6.336142   -7.368809   -0.204075
 H          5.449068   -7.403126    1.346116
 C          1.911531   -2.859288    0.138582
 C          1.196792   -4.072425    0.172070
 S          0.775654   -1.501545    0.107571
 C         -0.185317   -3.919607    0.170886
 H          1.702920   -5.027501    0.194785
 C         -0.616823   -2.585509    0.135880
 H         -0.875743   -4.756446    0.191960
 C         -1.940620   -2.087448    0.123765
 C         -2.359978   -0.758274    0.050487
 S         -3.329158   -3.187820    0.206721
 C         -3.757330   -0.582832    0.066776
 H         -1.658210    0.061530   -0.038716
 C         -4.461062   -1.833555    0.131533
 C         -4.492356    0.645730   -0.035891
 C         -5.843789   -1.946659    0.079901
 C         -5.878033    0.529750   -0.087167
 C         -3.831798    1.954751   -0.090044
 C         -6.577658   -0.719282   -0.023269
 C         -6.507836   -3.256601    0.136835
 S         -7.013992    1.880304   -0.155079
 C         -4.051260    2.981614   -0.979986
 S         -2.640268    2.453661    1.109874
 C         -7.979463   -0.545440   -0.006034
 C         -6.320266   -4.265262    1.052455
 S         -7.659787   -3.773669   -1.091743
 C         -8.396659    0.777248   -0.074272
 C         -3.274184    4.145730   -0.716233
 C         -2.457349    4.030518    0.378666
 H         -8.677771   -1.369180    0.077244
 C         -7.092715   -5.432899    0.785363
 C         -7.872808   -5.336365   -0.337119
 C         -9.729229    1.281560   -0.082654
 C         -1.508843    5.044030    0.945714
 C         -8.804692   -6.358340   -0.916875
 C        -10.153849    2.609846   -0.108064
 S        -11.117728    0.201762   -0.060492
 H         -0.475482    4.677251    0.950697
 H         -1.540763    5.956184    0.342215
 H         -1.766094    5.312359    1.977397
 H         -8.513921   -6.646108   -1.934290
 H         -8.794795   -7.259379   -0.296138
 H         -9.836603   -5.990318   -0.962681
 C        -11.545086    2.761533   -0.106641
 H         -9.464972    3.447735   -0.123676
 C        -12.249314    1.556040   -0.080346
 H        -12.049232    3.718039   -0.122273
 C        -13.679862    1.384739   -0.070736
 C        -14.324416    0.148426   -0.044047
 C        -14.614202    2.477804   -0.089548
 C        -15.720253   -0.030568   -0.033230
 F        -13.596537   -0.988127   -0.026756
 C        -16.029662    2.293014   -0.078435
 N        -14.366454    3.802958   -0.111710
 C        -16.654457    1.000897   -0.047665
 F        -16.134164   -1.315386   -0.006822
 N        -16.608330    3.512471   -0.094080
 N        -15.577165    4.345232   -0.108010
 C        -18.091556    0.804510   -0.035650
 C        -15.764363    5.786045   -0.197596
 C        -19.075026    1.781578   -0.053447
 S        -18.843668   -0.793670    0.006060
 H        -16.698759    6.039858    0.302152
 H        -14.921567    6.270776    0.294412
 H        -15.808844    6.093072   -1.246559
 C        -20.395611    1.263375   -0.033933
 H        -18.838643    2.836525   -0.079464
 C        -20.430215   -0.106145   -0.001221
 H        -21.284243    1.884991   -0.043843
 H        -21.296086   -0.754854    0.018822
 H         17.317313   -3.221811    1.403960
 H         15.446950   -1.444095    1.895555
 H         12.754010    5.046075   -1.980951
 H         10.867238    6.806208   -1.501779
 H         -5.665073   -4.162768    1.910688
 H         -7.076703   -6.318516    1.412507
 H         -4.730340    2.892668   -1.820900
 H         -3.311767    5.042418   -1.326478
