       124
S0: Total Energy = -7027.05813828
 C          4.935385   -1.528817   -0.015340
 C          5.857413   -2.569244   -0.026294
 C          7.206704   -2.149251   -0.031555
 C          7.317074   -0.763249   -0.026419
 C          8.654380   -0.211621   -0.033563
 C          9.715459   -1.101107   -0.056031
 C         10.983787   -0.413058   -0.039444
 C         10.830205    1.011879    0.000447
 C         11.883336    1.923216    0.038032
 S          5.773350    0.031358   -0.012405
 H          5.539628   -3.604570   -0.029411
 C         19.223872    2.483086   -0.008024
 C         18.338657    3.531468    0.007395
 C         16.974902    3.116505    0.016131
 C         16.863034    1.734291    0.009676
 C         15.518993    1.183675    0.019787
 C         14.459967    2.071485    0.044686
 C         13.189823    1.383541    0.028623
 C         13.343524   -0.041311   -0.011759
 C         12.291035   -0.952892   -0.048285
 S         18.411779    0.940748   -0.010008
 H         18.665483    4.566514    0.010567
 S         15.054560   -0.502144   -0.011356
 S          9.119800    1.474554   -0.002775
 H         20.305337    2.515934   -0.019684
Si         15.220391    3.816815    0.057508
Si          8.962201   -2.851352   -0.068869
 C         11.629904    3.409244    0.059932
 H         12.374730    3.931998    0.664283
 H         11.658015    3.837717   -0.950479
 H         10.649155    3.643710    0.486444
 C         12.544375   -2.438865   -0.068811
 H         12.508395   -2.867173    0.941366
 H         11.804461   -2.961745   -0.679140
 H         13.528334   -2.673259   -0.487494
 C         14.926203    4.800839    1.644711
 H         13.905259    5.191256    1.717030
 H         15.117736    4.183768    2.529033
 H         15.609612    5.658270    1.678874
 C         14.815390    4.845939   -1.472531
 H         14.994529    4.274175   -2.389249
 H         13.770068    5.173639   -1.474398
 H         15.446011    5.742593   -1.504740
 C          9.362302   -3.874925    1.464738
 H         10.406861   -4.204781    1.469343
 H          9.182175   -3.300354    2.379446
 H          8.729214   -4.769713    1.497252
 C          9.256230   -3.833014   -1.656200
 H          9.067217   -3.215032   -2.540374
 H         10.276125   -4.226162   -1.727086
 H          8.570120   -4.688154   -1.690803
 C          3.489325   -1.592411   -0.008377
 C          2.660010   -0.478105   -0.018851
 C          2.769199   -2.843606    0.009363
 C          1.244312   -0.535674   -0.013731
 H          3.106522    0.511790   -0.033048
 C          1.326109   -2.902049    0.014749
 N          3.234908   -4.078736    0.023635
 C          0.507816   -1.713079    0.002009
 N          0.961809   -4.170872    0.031704
 O          2.129275   -4.882931    0.037166
 H          0.719110    0.414850   -0.022966
 C         -0.939202   -1.766179    0.003879
 C         -1.773533   -2.877491    0.035387
 S         -1.900349   -0.279711   -0.037782
 C         -3.152599   -2.568006    0.029746
 H         -1.372824   -3.883196    0.063055
 C         -3.374973   -1.196343   -0.010294
Si         -4.844676   -3.411933    0.038351
 C         -4.753039   -0.756067   -0.022883
 C         -5.738225   -1.729386   -0.002091
 C         -5.073497   -4.471872   -1.508706
 C         -5.145500   -4.406056    1.613292
 S         -5.353756    0.886583   -0.049554
 C         -7.057789   -1.146745    0.002671
 H         -6.057629   -4.950920   -1.551177
 H         -4.946581   -3.873185   -2.416910
 H         -4.318688   -5.267646   -1.522473
 H         -4.997995   -3.786278    2.504008
 H         -6.161671   -4.813692    1.646160
 H         -4.445533   -5.248423    1.667641
 C         -7.020433    0.287068   -0.012177
 C         -8.316489   -1.791504    0.028226
 C         -8.143229    1.110768    0.001675
 C         -9.439373   -0.967751    0.042080
 C         -8.448807   -3.292729    0.066678
 C         -9.401915    0.465967    0.026560
 C         -8.010073    2.611943   -0.036699
 S        -11.106104   -1.567245    0.079129
 H         -7.667614   -3.778218   -0.522501
 H         -8.381795   -3.676302    1.093122
 H         -9.409388   -3.622072   -0.342493
 C        -10.721820    1.048507    0.029311
 H         -8.067447    2.994705   -1.064037
 H         -8.796080    3.098423    0.545084
 H         -7.052919    2.940897    0.380795
 C        -11.706401    0.075360    0.050054
Si        -11.614635    2.731736   -0.017157
 C        -13.084974    0.516709    0.033194
 C        -13.306696    1.887911   -0.011549
 C        -11.308408    3.721677   -1.593498
 C        -11.389788    3.794288    1.528534
 S        -14.558659   -0.400192    0.058354
 C        -14.686905    2.195987   -0.023055
 H        -10.291638    4.127939   -1.624277
 H        -11.454056    3.100046   -2.483223
 H        -12.007146    4.564787   -1.651734
 H        -11.520390    3.197546    2.437492
 H        -10.405203    4.272157    1.573272
 H        -12.143583    4.591069    1.538187
 C        -15.519030    1.085116    0.009136
 H        -15.088158    3.201479   -0.055609
 C        -16.970197    1.033850    0.005483
 C        -17.701724   -0.142497    0.039953
 C        -17.778437    2.233352   -0.035176
 C        -19.131070   -0.193508    0.036549
 H        -17.174786   -1.091468    0.071460
 C        -19.218519    2.171569   -0.038443
 N        -17.417406    3.503075   -0.074071
 C        -19.913648    0.930065   -0.001696
 H        -19.599974   -1.172541    0.065762
 N        -19.697032    3.403403   -0.079255
 O        -18.589625    4.209012   -0.100731
 H        -20.996590    0.894614   -0.004460
       124
T1: Total Energy = -7027.02330133
 C         -4.888588    1.501633   -0.001656
 C         -5.836688    2.553430   -0.003584
 C         -7.163610    2.130882   -0.011587
 C         -7.279009    0.726972   -0.016535
 C         -8.601261    0.191494   -0.024486
 C         -9.671120    1.093010   -0.034317
 C        -10.933759    0.411928   -0.024313
 C        -10.789473   -1.017625   -0.003396
 C        -11.846324   -1.919809    0.023081
 S         -5.730966   -0.070788   -0.009954
 H         -5.513192    3.586684    0.000863
 C        -19.186325   -2.440187   -0.020149
 C        -18.305390   -3.492807   -0.016150
 C        -16.940657   -3.083598   -0.004155
 C        -16.823449   -1.700899    0.003327
 C        -15.479082   -1.156809    0.017393
 C        -14.421884   -2.051581    0.030415
 C        -13.152416   -1.370591    0.021644
 C        -13.297982    0.056737    0.000172
 C        -12.241187    0.961011   -0.024250
 S        -18.369321   -0.901114   -0.006992
 H        -18.636685   -4.526333   -0.023243
 S        -15.007135    0.525552    0.006666
 S         -9.080550   -1.491987   -0.014999
 H        -20.267932   -2.468982   -0.031080
Si        -15.190223   -3.795053    0.027454
Si         -8.917852    2.843832   -0.037952
 C        -11.610353   -3.408683    0.027095
 H        -12.323272   -3.921995    0.677110
 H        -11.709458   -3.833799   -0.979952
 H        -10.608424   -3.658242    0.389847
 C        -12.477575    2.449286   -0.025045
 H        -12.351246    2.875462    0.978446
 H        -11.782546    2.962166   -0.694819
 H        -13.488754    2.698371   -0.360618
 C        -14.899377   -4.794695    1.604864
 H        -13.882971   -5.198203    1.667855
 H        -15.078954   -4.183361    2.495620
 H        -15.592944   -5.644064    1.634968
 C        -14.796908   -4.811426   -1.513645
 H        -14.965787   -4.227044   -2.424308
 H        -13.757030   -5.155805   -1.517381
 H        -15.441362   -5.697728   -1.556599
 C         -9.298092    3.860178    1.504432
 H        -10.335249    4.212397    1.512676
 H         -9.128444    3.275267    2.414511
 H         -8.646059    4.741036    1.542489
 C         -9.209079    3.835334   -1.618393
 H         -9.035766    3.219537   -2.507216
 H        -10.223221    4.244718   -1.678918
 H         -8.509799    4.679697   -1.653032
 C         -3.478870    1.578302    0.003381
 C         -2.632675    0.419392   -0.002843
 C         -2.764631    2.834189    0.013341
 C         -1.259798    0.473743   -0.001959
 H         -3.100335   -0.560543   -0.009734
 C         -1.321584    2.891761    0.015528
 N         -3.238879    4.064561    0.021864
 C         -0.508897    1.696569    0.006422
 N         -0.946646    4.155763    0.025355
 O         -2.123271    4.888180    0.029395
 H         -0.715625   -0.465771   -0.007744
 C          0.902203    1.733033    0.004205
 C          1.762965    2.857193    0.015784
 S          1.867958    0.233199   -0.016898
 C          3.119465    2.542437    0.009392
 H          1.357734    3.861092    0.029372
 C          3.346942    1.152444   -0.009741
Si          4.810392    3.394438    0.003904
 C          4.708318    0.725465   -0.017939
 C          5.702165    1.710095   -0.010510
 C          5.031245    4.428532   -1.560538
 C          5.096298    4.415280    1.563669
 S          5.321046   -0.914180   -0.029076
 C          7.015160    1.132815   -0.002805
 H          6.009233    4.919496   -1.607746
 H          4.914361    3.813283   -2.458902
 H          4.266088    5.213916   -1.589331
 H          4.962358    3.806082    2.463720
 H          6.103103    4.845866    1.589228
 H          4.378078    5.242881    1.605939
 C          6.986051   -0.304437   -0.002503
 C          8.274056    1.785439    0.012631
 C          8.111220   -1.119304    0.016465
 C          9.399893    0.968838    0.030902
 C          8.390529    3.287733    0.034134
 C          9.369477   -0.466441    0.030399
 C          7.993967   -2.622027   -0.003631
 S         11.064908    1.574920    0.055665
 H          7.657887    3.753458   -0.629866
 H          8.229421    3.687720    1.043413
 H          9.378963    3.621801   -0.295514
 C         10.687745   -1.043135    0.035797
 H          8.121991   -3.020954   -1.018085
 H          8.746787   -3.088936    0.636096
 H          7.016120   -2.955497    0.357290
 C         11.671105   -0.064393    0.043137
Si         11.587247   -2.724628    0.009401
 C         13.048921   -0.500387    0.028869
 C         13.275182   -1.872308    0.001239
 C         11.288702   -3.736505   -1.554251
 C         11.370423   -3.767326    1.569256
 S         14.520213    0.421434    0.038202
 C         14.655571   -2.175965   -0.010248
 H         10.278653   -4.159517   -1.577223
 H         11.422316   -3.123440   -2.451762
 H         12.000450   -4.569213   -1.604600
 H         11.494946   -3.157498    2.470326
 H         10.390332   -4.253692    1.619360
 H         12.131506   -4.556922    1.589925
 C         15.484503   -1.061654    0.005587
 H         15.060175   -3.180406   -0.031107
 C         16.935193   -1.006598   -0.002287
 C         17.663419    0.172388    0.018546
 C         17.746484   -2.204286   -0.033136
 C         19.092399    0.227381    0.010690
 H         17.133828    1.120111    0.042296
 C         19.186313   -2.138370   -0.040917
 N         17.388971   -3.475307   -0.058411
 C         19.877912   -0.894567   -0.018481
 H         19.558729    1.207883    0.028887
 N         19.668306   -3.369172   -0.070714
 O         18.563263   -4.178134   -0.081240
 H         20.960738   -0.856130   -0.024555
       124
S1: Total Energy = -7027.00267051
 C         -4.901574    1.487529   -0.081247
 C         -5.832120    2.535444   -0.035742
 C         -7.171386    2.116957   -0.030994
 C         -7.290482    0.721750   -0.074967
 C         -8.617096    0.187596   -0.068581
 C         -9.685732    1.090977   -0.022534
 C        -10.944614    0.413200   -0.005142
 C        -10.805519   -1.018738   -0.037650
 C        -11.863243   -1.916495   -0.018870
 S         -5.744591   -0.076569   -0.121694
 H         -5.504780    3.567049   -0.005783
 C        -19.197226   -2.420086    0.129787
 C        -18.317528   -3.474066    0.078969
 C        -16.954232   -3.066721    0.064015
 C        -16.835080   -1.682236    0.106567
 C        -15.494743   -1.140373    0.096922
 C        -14.435327   -2.039789    0.051389
 C        -13.170126   -1.362688    0.031770
 C        -13.310692    0.067004    0.063277
 C        -12.253374    0.966758    0.045349
 S        -18.380588   -0.882065    0.162684
 H        -18.650956   -4.506480    0.052601
 S        -15.019341    0.538293    0.127535
 S         -9.097486   -1.492432   -0.103197
 H        -20.278747   -2.449129    0.149337
Si        -15.206323   -3.784487    0.020470
Si         -8.919500    2.838399    0.010187
 C        -11.641304   -3.406151   -0.071447
 H        -12.276626   -3.926772    0.650500
 H        -11.867440   -3.808254   -1.066911
 H        -10.606157   -3.672093    0.160913
 C        -12.474290    2.455796    0.097336
 H        -12.216509    2.862339    1.083244
 H        -11.860701    2.972922   -0.646075
 H        -13.515959    2.721528   -0.103475
 C        -14.867042   -4.828482    1.557828
 H        -13.853908   -5.244594    1.569023
 H        -15.004540   -4.240210    2.471261
 H        -15.568974   -5.670718    1.591942
 C        -14.873616   -4.754097   -1.563777
 H        -15.056024   -4.136756   -2.449703
 H        -13.842287   -5.120091   -1.608797
 H        -15.537762   -5.625206   -1.616797
 C         -9.247038    3.807527    1.595198
 H        -10.273585    4.186875    1.639099
 H         -9.072603    3.187339    2.480677
 H         -8.571125    4.669482    1.649106
 C         -9.256663    3.881632   -1.527282
 H         -9.120953    3.293240   -2.440849
 H        -10.268211    4.301761   -1.537645
 H         -8.550625    4.720408   -1.560404
 C         -3.469671    1.554518   -0.092294
 C         -2.641975    0.412227   -0.138548
 C         -2.759814    2.805935   -0.052712
 C         -1.249785    0.465139   -0.142312
 H         -3.104986   -0.569688   -0.171859
 C         -1.319356    2.862628   -0.056096
 N         -3.237108    4.040846   -0.008065
 C         -0.512584    1.669053   -0.099764
 N         -0.940066    4.130099   -0.013592
 O         -2.118194    4.859151    0.015979
 H         -0.712639   -0.478004   -0.177819
 C          0.916856    1.713915   -0.095716
 C          1.764275    2.832949   -0.046727
 S          1.880663    0.220576   -0.150420
 C          3.129606    2.522453   -0.049069
 H          1.356202    3.835049   -0.008402
 C          3.359762    1.138423   -0.103303
Si          4.814379    3.381254   -0.006340
 C          4.720771    0.713073   -0.104095
 C          5.716483    1.700615   -0.052104
 C          5.061560    4.456688   -1.538760
 C          5.066433    4.363219    1.584444
 S          5.336048   -0.922575   -0.153657
 C          7.022842    1.127895   -0.040694
 H          6.037970    4.952862   -1.553245
 H          4.965160    3.864662   -2.454983
 H          4.293306    5.239236   -1.562440
 H          4.938323    3.726255    2.465930
 H          6.061580    4.818148    1.632290
 H          4.327517    5.171534    1.642470
 C          7.000732   -0.312346   -0.084729
 C          8.284198    1.785383    0.014642
 C          8.126008   -1.120937   -0.073480
 C          9.409669    0.975062    0.026623
 C          8.384233    3.286821    0.079351
 C          9.386127   -0.463200   -0.017107
 C          8.025480   -2.622970   -0.139574
 S         11.074213    1.583929    0.098488
 H          7.722632    3.759878   -0.651978
 H          8.106239    3.662321    1.072117
 H          9.398711    3.637443   -0.130514
 C         10.697229   -1.035377   -0.002129
 H          8.288885   -2.996580   -1.136927
 H          8.696360   -3.097518    0.581938
 H          7.013871   -2.973408    0.083945
 C         11.685364   -0.051578    0.053004
Si         11.600012   -2.717045   -0.045477
 C         13.055591   -0.484350    0.059845
 C         13.284457   -1.859977    0.006667
 C         11.351180   -3.694638   -1.639165
 C         11.345507   -3.793314    1.485007
 S         14.529008    0.435841    0.122389
 C         14.660859   -2.163650    0.018119
 H         10.352426   -4.140729   -1.693263
 H         11.489148   -3.057185   -2.518822
 H         12.083117   -4.509401   -1.694551
 H         11.439005   -3.202151    2.402100
 H         10.368221   -4.287660    1.495283
 H         12.111843   -4.577628    1.511273
 C         15.492658   -1.048809    0.077049
 H         15.066689   -3.167192   -0.016223
 C         16.939818   -0.996840    0.101726
 C         17.669759    0.183822    0.157227
 C         17.749414   -2.195688    0.069926
 C         19.095632    0.235470    0.182238
 H         17.139945    1.131374    0.183324
 C         19.189673   -2.131561    0.095402
 N         17.390291   -3.465293    0.016824
 C         19.880699   -0.889473    0.152952
 H         19.564317    1.214108    0.226287
 N         19.671548   -3.362748    0.057074
 O         18.564931   -4.171298    0.009194
 H         20.963449   -0.852137    0.171827
