       138
S0: Total Energy = -7701.23263711
 C         -7.253903   -1.071192    0.006142
 C         -7.999525   -2.245698   -0.000654
 C         -9.396688   -2.045234    0.008334
 C         -9.724259   -0.692643    0.025277
 C        -11.131184   -0.359167    0.037747
 C        -12.037613   -1.406748    0.040728
 C        -13.398558   -0.928909    0.031384
 C        -13.472841    0.503091    0.018151
 C        -14.657143    1.236388   -0.007044
 S         -8.327277    0.336629    0.027115
 H         -7.522130   -3.217714   -0.013245
 C        -21.992689    0.623661    0.014360
 C        -21.284758    1.799178    0.023419
 C        -19.872594    1.605539    0.013659
 C        -19.543237    0.258555   -0.005726
 C        -18.128926   -0.071584   -0.019848
 C        -17.224167    0.973530   -0.023042
 C        -15.861269    0.495794   -0.013785
 C        -15.787001   -0.936225   -0.000876
 C        -14.603612   -1.669903    0.023767
 S        -20.946826   -0.770392   -0.008955
 H        -21.771349    2.769271    0.038381
 S        -17.403033   -1.662659   -0.018310
 S        -11.858150    1.231804    0.036073
 H        -23.065739    0.484615    0.021226
Si        -18.251666    2.576459   -0.006654
Si        -11.018757   -3.017526    0.028284
 C        -14.642208    2.743893    0.000798
 H        -15.464652    3.154417   -0.589194
 H        -14.729783    3.142063    1.020148
 H        -13.714072    3.139008   -0.424964
 C        -14.619211   -3.177313    0.013798
 H        -14.527953   -3.573485   -1.005959
 H        -13.799970   -3.590102    0.606695
 H        -15.549473   -3.572045    0.434833
 C        -18.115572    3.624213   -1.574287
 H        -17.168697    4.171488   -1.636217
 H        -18.207826    3.001709   -2.470640
 H        -18.925214    4.364161   -1.594302
 C        -18.016180    3.627330    1.543612
 H        -18.105552    3.017941    2.449146
 H        -17.034909    4.114140    1.556174
 H        -18.779292    4.413725    1.588463
 C        -11.250445   -4.065369   -1.522855
 H        -12.231168   -4.552976   -1.537401
 H        -11.159527   -3.455297   -2.427698
 H        -10.486164   -4.850573   -1.565750
 C        -11.155343   -4.056773    1.599806
 H        -11.064844   -3.430465    2.493608
 H        -12.101389   -4.605155    1.662525
 H        -10.344297   -4.794922    1.622795
 C         -5.816574   -0.909281   -0.001605
 C         -5.179736    0.322201    0.007019
 C         -4.914839   -2.045440   -0.018416
 C         -3.764845    0.487847    0.000637
 H         -5.773367    1.230800    0.019550
 C         -3.485200   -1.882521   -0.024941
 N         -5.181934   -3.336906   -0.030034
 C         -2.858206   -0.587932   -0.015287
 C         -3.137339    1.782562    0.010202
 N         -2.919394   -3.071289   -0.040305
 O         -3.960676   -3.959176   -0.043372
 C         -1.443047   -0.421632   -0.021341
 C         -1.707702    1.945525    0.003957
 N         -3.703094    2.971273    0.025278
 C         -0.806640    0.809390   -0.012406
 H         -0.849423   -1.330304   -0.033682
 N         -1.440537    3.237045    0.015465
 O         -2.662190    3.859181    0.028461
 C          0.631890    0.971121   -0.019082
 C          1.376868    2.145467   -0.012236
 S          1.704169   -0.436756   -0.037820
 C          2.774613    1.944429   -0.019517
 H          0.899503    3.117468   -0.000760
 C          3.101460    0.592296   -0.035048
Si          4.396092    2.918044   -0.037390
 C          4.508753    0.259197   -0.044861
 C          5.415341    1.306884   -0.046904
 C          4.535632    3.955147   -1.609758
 C          4.624637    3.966213    1.513717
 S          5.233699   -1.332064   -0.040770
 C          6.775420    0.828131   -0.034514
 H          5.480816    4.505232   -1.670411
 H          4.448543    3.327748   -2.503120
 H          3.723427    4.691885   -1.635761
 H          4.533978    3.356289    2.418674
 H          5.604164    4.456165    1.529084
 H          3.858621    4.749758    1.555529
 C          6.848566   -0.604760   -0.020177
 C          7.980182    1.569531   -0.025317
 C          8.031466   -1.338598    0.007932
 C          9.163240    0.835683    0.002988
 C          7.995115    3.076836   -0.017885
 C          9.236314   -0.597116    0.017411
 C          8.016055   -2.845908   -0.000135
 S         10.777947    1.563322    0.023956
 H          7.181163    3.487708   -0.619296
 H          7.893984    3.474481    1.000259
 H          8.928749    3.471776   -0.431104
 C         10.596427   -1.075674    0.030121
 H          8.113659   -3.243011   -1.018837
 H          8.831552   -3.257619    0.598552
 H          7.083489   -3.240498    0.415775
 C         11.502811   -0.027841    0.028401
Si         11.614170   -2.688080    0.021461
 C         12.909785   -0.361927    0.019450
 C         13.236102   -1.714851    0.004198
 C         11.386145   -3.735891   -1.529720
 C         11.473994   -3.723905    1.594413
 S         14.306030    0.667068    0.023401
 C         14.633265   -1.915310   -0.001870
 H         10.406032   -4.224593   -1.545863
 H         11.478265   -3.126147   -2.434640
 H         12.151192   -4.520417   -1.570710
 H         11.561455   -3.096008    2.487378
 H         10.528380   -4.273161    1.655336
 H         12.285560   -4.461325    1.620850
 C         15.378031   -0.740691    0.005752
 H         15.110515   -2.887413   -0.012831
 C         16.816490   -0.578982    0.001334
 C         17.452025    0.650796    0.014139
 C         17.717484   -1.716115   -0.016323
 C         18.871250    0.816367    0.010980
 H         16.859739    1.560102    0.027853
 C         19.146746   -1.553305   -0.019690
 N         17.449243   -3.007147   -0.031525
 C         19.772160   -0.261453   -0.005762
 C         19.488393    2.118771    0.025282
 N         19.711912   -2.743763   -0.036744
 O         18.668796   -3.629505   -0.043924
 C         21.200923   -0.088861   -0.008627
 C         20.916116    2.276048    0.022330
 N         18.927632    3.310459    0.042364
 C         21.788669    1.143750    0.004936
 H         21.814815   -0.983628   -0.022097
 N         21.198842    3.565637    0.037726
 O         19.976245    4.191489    0.049910
 H         22.864545    1.272381    0.002783
       138
T1: Total Energy = -7701.19963942
 C         -7.211205   -1.060370    0.003089
 C         -7.977520   -2.244594    0.000071
 C         -9.357442   -2.035695    0.010897
 C         -9.687636   -0.668858    0.024083
 C        -11.078082   -0.342392    0.034859
 C        -11.993892   -1.399905    0.037437
 C        -13.345925   -0.924082    0.030956
 C        -13.425395    0.511138    0.020880
 C        -14.609254    1.238007    0.000046
 S         -8.283613    0.358667    0.021228
 H         -7.497890   -3.215213   -0.010498
 C        -21.938315    0.608537    0.023242
 C        -21.231669    1.785578    0.029204
 C        -19.820405    1.593110    0.019179
 C        -19.490190    0.244996    0.003300
 C        -18.078335   -0.083078   -0.009312
 C        -17.172694    0.966422   -0.012429
 C        -15.814164    0.491227   -0.005539
 C        -15.736005   -0.942201    0.004586
 C        -14.552259   -1.671118    0.024438
 S        -20.893260   -0.785046    0.003143
 H        -21.719479    2.754953    0.041776
 S        -17.351231   -1.671095   -0.009854
 S        -11.811294    1.245042    0.037176
 H        -23.011364    0.469242    0.030370
Si        -18.202745    2.570276   -0.000554
Si        -10.978088   -3.014681    0.030376
 C        -14.609064    2.745294    0.008937
 H        -15.385254    3.146654   -0.647376
 H        -14.786114    3.139978    1.017538
 H        -13.654255    3.152064   -0.337914
 C        -14.554598   -3.177887    0.012593
 H        -14.368760   -3.569925   -0.995457
 H        -13.785836   -3.583027    0.675391
 H        -15.513468   -3.583440    0.348870
 C        -18.065866    3.612570   -1.570677
 H        -17.124276    4.169350   -1.626954
 H        -18.145616    2.986606   -2.465769
 H        -18.882671    4.344256   -1.598546
 C        -17.978901    3.622413    1.549799
 H        -18.058222    3.011663    2.455321
 H        -17.005944    4.125380    1.561602
 H        -18.754369    4.396568    1.595289
 C        -11.195142   -4.063205   -1.521069
 H        -12.165871   -4.570178   -1.535486
 H        -11.115356   -3.451366   -2.425696
 H        -10.415732   -4.833347   -1.563952
 C        -11.113875   -4.046283    1.605271
 H        -11.038703   -3.415365    2.497157
 H        -12.052523   -4.607784    1.662027
 H        -10.292625   -4.772610    1.637120
 C         -5.797138   -0.919746   -0.005436
 C         -5.147577    0.340869    0.000187
 C         -4.904151   -2.061709   -0.019763
 C         -3.768062    0.511486   -0.006650
 H         -5.755109    1.240843    0.010740
 C         -3.473163   -1.900416   -0.027099
 N         -5.179881   -3.349739   -0.028195
 C         -2.843006   -0.600347   -0.020540
 C         -3.138046    1.811220   -0.000242
 N         -2.905384   -3.084565   -0.039853
 O         -3.951130   -3.986936   -0.040659
 C         -1.463088   -0.431030   -0.026802
 C         -1.706905    1.971317   -0.006943
 N         -3.704524    2.996087    0.011982
 C         -0.813572    0.829131   -0.020495
 H         -0.856135   -1.331301   -0.037066
 N         -1.429980    3.259034    0.001346
 O         -2.656884    3.897348    0.013014
 C          0.601205    0.970351   -0.027024
 C          1.367697    2.152914   -0.022132
 S          1.672736   -0.449161   -0.043560
 C          2.748817    1.942803   -0.029812
 H          0.889394    3.124224   -0.012125
 C          3.076665    0.577051   -0.042807
Si          4.371024    2.918936   -0.044777
 C          4.469129    0.248749   -0.049947
 C          5.385029    1.303306   -0.049821
 C          4.512708    3.951544   -1.618689
 C          4.587586    3.966747    1.507342
 S          5.198156   -1.340885   -0.049081
 C          6.737444    0.824713   -0.037961
 H          5.452975    4.510559   -1.673416
 H          4.437453    3.321493   -2.511191
 H          3.693566    4.680207   -1.651607
 H          4.502757    3.355205    2.411719
 H          5.560462    4.469550    1.524479
 H          3.811381    4.740225    1.548173
 C          6.813169   -0.610860   -0.026548
 C          7.944275    1.569074   -0.027256
 C          7.994983   -1.341034   -0.000023
 C          9.126737    0.837481   -0.000882
 C          7.951275    3.075910   -0.017764
 C          9.201338   -0.596535    0.010700
 C          7.988494   -2.848252   -0.009122
 S         10.741688    1.565225    0.021322
 H          7.175382    3.482310   -0.671146
 H          7.780310    3.470597    0.991919
 H          8.906917    3.477816   -0.367867
 C         10.557795   -1.074511    0.023378
 H          8.148720   -3.243346   -1.020384
 H          8.771129   -3.254145    0.636349
 H          7.036619   -3.250123    0.351279
 C         11.466179   -0.024714    0.024032
Si         11.576100   -2.687990    0.016487
 C         12.871026   -0.358516    0.017539
 C         13.196869   -1.712439    0.003175
 C         11.356757   -3.734472   -1.536531
 C         11.432837   -3.723579    1.588795
 S         14.268346    0.669769    0.023161
 C         14.593280   -1.913634   -0.001152
 H         10.381902   -4.233377   -1.553826
 H         11.443332   -3.122517   -2.440492
 H         12.129653   -4.511227   -1.578393
 H         11.510092   -3.095211    2.482344
 H         10.490844   -4.279639    1.643112
 H         12.249363   -4.455258    1.620486
 C         15.338790   -0.738922    0.007356
 H         15.070251   -2.885853   -0.011238
 C         16.777313   -0.578835    0.005335
 C         17.413749    0.650643    0.020496
 C         17.677002   -1.716867   -0.012170
 C         18.832901    0.815069    0.019709
 H         16.822151    1.560406    0.034442
 C         19.106353   -1.555194   -0.013167
 N         17.407629   -3.007608   -0.029245
 C         19.732820   -0.263850    0.003164
 C         19.451113    2.116904    0.036509
 N         19.670572   -2.746097   -0.030672
 O         18.626809   -3.631022   -0.040451
 C         21.161623   -0.092574    0.002765
 C         20.878954    2.272750    0.036019
 N         18.891471    3.309089    0.054101
 C         21.750402    1.139601    0.018695
 H         21.774793   -0.987828   -0.010768
 N         21.162956    3.562034    0.053380
 O         19.941025    4.189103    0.064320
 H         22.826400    1.267220    0.018411
       138
S1: Total Energy = -7701.18372843
 C         -7.230995   -1.063443    0.011448
 C         -7.985045   -2.239547    0.014626
 C         -9.376402   -2.031374    0.019855
 C         -9.702747   -0.672546    0.021609
 C        -11.098787   -0.342510    0.025579
 C        -12.015442   -1.398280    0.030672
 C        -13.363427   -0.920037    0.022694
 C        -13.442216    0.516028    0.010676
 C        -14.624513    1.242254   -0.006976
 S         -8.297905    0.352049    0.015753
 H         -7.506820   -3.210879    0.012532
 C        -21.947238    0.622776    0.008036
 C        -21.237069    1.799290    0.004740
 C        -19.828483    1.602861   -0.001334
 C        -19.502085    0.250854   -0.004035
 C        -18.096021   -0.081249   -0.010310
 C        -17.184580    0.970861   -0.017096
 C        -15.832366    0.493914   -0.009473
 C        -15.754531   -0.941074    0.003072
 C        -14.572628   -1.668616    0.019716
 S        -20.909130   -0.774700    0.002513
 H        -21.722774    2.769624    0.007527
 S        -17.372297   -1.667493   -0.004240
 S        -11.825553    1.244112    0.020652
 H        -23.020912    0.487933    0.013965
Si        -18.210570    2.580669   -0.022145
Si        -10.993679   -3.012024    0.038067
 C        -14.632878    2.748878   -0.001301
 H        -15.339707    3.143746   -0.736482
 H        -14.919476    3.140870    0.982322
 H        -13.650567    3.163294   -0.244422
 C        -14.563052   -3.174728    0.014966
 H        -14.242542   -3.566219   -0.958232
 H        -13.879989   -3.568510    0.773267
 H        -15.552245   -3.590712    0.224718
 C        -18.061503    3.605345   -1.601153
 H        -17.120910    4.164073   -1.652766
 H        -18.130675    2.970227   -2.490591
 H        -18.879859    4.334407   -1.644306
 C        -18.001746    3.641552    1.523462
 H        -18.072835    3.034005    2.431772
 H        -17.038054    4.161751    1.534615
 H        -18.790252    4.402693    1.563919
 C        -11.195708   -4.071262   -1.508877
 H        -12.153784   -4.601745   -1.520358
 H        -11.130348   -3.461898   -2.416348
 H        -10.398728   -4.823422   -1.549883
 C        -11.145607   -4.033772    1.617774
 H        -11.081870   -3.397307    2.506603
 H        -12.083846   -4.596768    1.666243
 H        -10.323488   -4.758309    1.663958
 C         -5.796782   -0.913762    0.005434
 C         -5.156982    0.328025    0.006964
 C         -4.909044   -2.056104   -0.002491
 C         -3.756971    0.497756    0.001360
 H         -5.756774    1.233304    0.013181
 C         -3.478051   -1.898867   -0.008750
 N         -5.189339   -3.345701   -0.005704
 C         -2.849233   -0.603417   -0.006982
 C         -3.131116    1.792162    0.003940
 N         -2.913027   -3.088236   -0.015673
 O         -3.963018   -3.983253   -0.013789
 C         -1.451659   -0.437689   -0.012581
 C         -1.699999    1.950293   -0.001492
 N         -3.696756    2.982329    0.011315
 C         -0.810129    0.807267   -0.010212
 H         -0.852011   -1.342837   -0.018573
 N         -1.419950    3.239206    0.002643
 O         -2.645190    3.877517    0.010571
 C          0.618101    0.955440   -0.015728
 C          1.375832    2.133927   -0.009871
 S          1.686275   -0.461044   -0.031169
 C          2.762839    1.926618   -0.016010
 H          0.896885    3.104910   -0.000404
 C          3.091245    0.564051   -0.028470
Si          4.380169    2.908265   -0.024263
 C          4.482330    0.236042   -0.034202
 C          5.400986    1.294078   -0.028923
 C          4.531652    3.942884   -1.595532
 C          4.578811    3.954849    1.531513
 S          5.211754   -1.350551   -0.042570
 C          6.746632    0.818183   -0.022814
 H          5.469056    4.507657   -1.638594
 H          4.469784    3.313571   -2.489560
 H          3.708419    4.666482   -1.636484
 H          4.512874    3.338156    2.433970
 H          5.536541    4.485756    1.548327
 H          3.781254    4.706109    1.577448
 C          6.827744   -0.620036   -0.023592
 C          7.955884    1.568182   -0.010460
 C          8.009375   -1.344295   -0.010691
 C          9.137794    0.842683    0.002662
 C          7.944907    3.074227    0.008234
 C          9.217813   -0.594282    0.001604
 C          8.020564   -2.850782   -0.029736
 S         10.753716    1.572222    0.022349
 H          7.258850    3.474584   -0.743863
 H          7.628507    3.456891    0.986308
 H          8.932929    3.492769   -0.202093
 C         10.566836   -1.069813    0.008035
 H          8.327707   -3.233414   -1.010731
 H          8.713068   -3.251172    0.716239
 H          7.034457   -3.269213    0.189736
 C         11.480525   -0.014689    0.014458
Si         11.588473   -2.683552    0.000591
 C         12.878675   -0.345782    0.009341
 C         13.205858   -1.702957   -0.005549
 C         11.387937   -3.727277   -1.556977
 C         11.437169   -3.721936    1.569606
 S         14.279717    0.681339    0.016805
 C         14.599313   -1.905719   -0.009638
 H         10.428011   -4.254140   -1.575001
 H         11.456419   -3.109436   -2.458478
 H         12.182212   -4.481935   -1.603871
 H         11.500765   -3.094914    2.465143
 H         10.498737   -4.284972    1.612227
 H         12.258790   -4.447490    1.608274
 C         15.348178   -0.730043    0.000577
 H         15.076872   -2.877540   -0.020341
 C         16.784862   -0.573549   -0.000398
 C         17.422831    0.659140    0.015432
 C         17.681044   -1.713283   -0.017754
 C         18.837639    0.822744    0.015320
 H         16.830052    1.568298    0.029265
 C         19.111497   -1.552969   -0.018135
 N         17.408243   -3.003348   -0.035266
 C         19.737887   -0.262072   -0.001205
 C         19.457681    2.124075    0.032645
 N         19.675167   -2.744628   -0.035782
 O         18.628586   -3.631392   -0.046221
 C         21.163694   -0.090503   -0.000975
 C         20.886804    2.277490    0.032676
 N         18.899675    3.316830    0.050294
 C         21.755075    1.142541    0.015446
 H         21.777203   -0.985707   -0.014420
 N         21.174182    3.566133    0.050378
 O         19.951836    4.197815    0.061132
 H         22.831381    1.267818    0.015589
