       106
S0: Total Energy = -7368.29417524
 C         16.338667   -0.675332   -0.020513
 C         15.772401    0.584247    0.048189
 C         14.370141    0.828456    0.052712
 C         13.425312   -0.209153   -0.010314
 C         13.966613   -1.542471   -0.082051
 C         15.399926   -1.780372   -0.087590
 H         16.411635    1.459380    0.105881
 C         13.829572    2.161769    0.124620
 C         12.023928    0.033864   -0.004953
 C         11.457281    1.295218    0.062989
 C         12.396496    2.400966    0.130007
 H         11.385026   -0.841706   -0.060219
 N         15.709131   -3.076433   -0.160706
 N         13.235647   -2.653837   -0.149674
 N         14.560716    3.273218    0.191995
 N         12.087635    3.696525    0.202536
 C         10.017649    1.497201    0.068109
 C          9.290104    2.670776    0.094436
 S          8.916661    0.126181    0.036092
 C          7.880266    2.510082    0.088109
 H          9.767104    3.641281    0.117971
 C          7.499719    1.170569    0.057100
 C          6.195551    0.553574    0.042896
 C          5.901515   -0.801391    0.014771
 S          4.694715    1.479787    0.061747
 C          4.522968   -1.095434    0.007507
 H          6.667761   -1.568866   -0.000936
 C          3.711539    0.025383    0.029900
 H          4.132911   -2.107471   -0.015243
 C         17.783453   -0.878079   -0.026441
 C         18.507598   -2.052187   -0.023533
 S         18.886624    0.498826   -0.034761
 C         19.925879   -1.874383   -0.024682
 H         18.029728   -3.022813   -0.020426
 C         20.268105   -0.547451   -0.030210
 C         20.911048   -3.012984   -0.020470
 H         21.941936   -2.646699   -0.022522
 H         20.780667   -3.647783    0.864473
 H         20.779626   -3.655015   -0.900016
 C          6.948897    3.693873    0.113342
 H          6.299711    3.725442   -0.770127
 H          6.297670    3.686073    0.995860
 H          7.523314    4.624346    0.134793
 C          2.272949    0.107324    0.030297
 S          1.289703   -1.347396    0.036137
 C          1.461560    1.228415    0.030192
 C         -0.211075   -0.420894    0.037792
 C          0.083017    0.934385    0.034639
 H          1.851674    2.240685    0.027639
 C         -1.515223   -1.037871    0.036006
 H         -0.683243    1.701992    0.037815
 S         -2.931062    0.005219   -0.043105
 C         -1.896644   -2.376542    0.088913
 C         -4.033029   -1.364775    0.002743
 C         -3.306184   -2.537458    0.069503
 C         -0.966071   -3.558944    0.162676
 C         -5.471917   -1.163123   -0.029494
 H         -3.783841   -3.507224    0.106294
 H         -0.319078   -3.628627   -0.720387
 H         -0.312713   -3.514033    1.042330
 H         -1.541089   -4.487271    0.224102
 C         -6.038308    0.100280   -0.064596
 C         -6.411334   -2.270641   -0.028147
 C         -7.438413    0.343643   -0.097928
 H         -5.398853    0.977211   -0.065906
 C         -7.844075   -2.031588   -0.061726
 N         -6.103078   -3.568041    0.000721
 C         -8.384476   -0.696220   -0.096668
 C         -7.978469    1.679113   -0.135338
 N         -8.575481   -3.144625   -0.057181
 C         -9.784751   -0.452861   -0.130592
 C         -9.411129    1.917950   -0.168667
 N         -7.247129    2.792188   -0.141557
 C        -10.350586    0.810674   -0.164132
 H        -10.424827   -1.329307   -0.135089
 N         -9.719835    3.215257   -0.198296
 C        -11.789762    1.013480   -0.189084
 C        -12.515223    2.179893   -0.333452
 S        -12.893329   -0.345516   -0.022222
 C        -13.925757    2.020128   -0.330533
 H        -12.036595    3.143073   -0.448695
 C        -14.306536    0.690059   -0.180219
 C        -14.857800    3.193269   -0.490954
 C        -15.612552    0.073507   -0.138328
 H        -15.602827    3.021890   -1.276169
 H        -15.404757    3.412421    0.434746
 H        -14.291749    4.090862   -0.756527
 C        -15.914767   -1.274074   -0.242527
 S        -17.096023    0.991855    0.113054
 C        -17.292311   -1.567826   -0.137380
 H        -15.159250   -2.033504   -0.412659
 C        -18.087081   -0.453990    0.050934
 H        -17.694525   -2.571696   -0.222857
 C        -19.525475   -0.369813    0.184249
 S        -20.486828   -1.807794    0.502793
 C        -20.344051    0.738271    0.104060
 C        -21.959298   -0.888180    0.506198
 C        -21.724252    0.441678    0.287509
 H        -19.967617    1.735657   -0.097490
 H        -22.509667    1.188617    0.250937
 H        -22.904471   -1.388058    0.669839
 H         21.262048   -0.118674   -0.033720
 S         14.292267   -3.913894   -0.216331
 S         13.505175    4.533882    0.258159
 S         -7.520695   -4.407218   -0.013413
 S         -8.302371    4.054566   -0.186138
       106
T1: Total Energy = -7368.25778403
 C         16.304782   -0.672169    0.014145
 C         15.737297    0.589183    0.016622
 C         14.335273    0.831820    0.008538
 C         13.391407   -0.209158   -0.000463
 C         13.933708   -1.543953   -0.002331
 C         15.367062   -1.780285    0.004894
 H         16.375804    1.466628    0.028039
 C         13.793416    2.166725    0.011077
 C         11.990501    0.032614   -0.007130
 C         11.422777    1.295823   -0.004944
 C         12.360312    2.404844    0.004350
 H         11.352430   -0.845321   -0.014796
 N         15.677548   -3.078029    0.000236
 N         13.203790   -2.657947   -0.011526
 N         14.523586    3.280700    0.019684
 N         12.050303    3.702026    0.008296
 C          9.983437    1.495219   -0.010896
 C          9.255039    2.670366   -0.021176
 S          8.885006    0.123027   -0.005142
 C          7.847359    2.509568   -0.025344
 H          9.732811    3.640687   -0.025962
 C          7.466607    1.167161   -0.017998
 C          6.166019    0.552982   -0.019022
 C          5.874538   -0.807965   -0.019282
 S          4.664740    1.476964   -0.018329
 C          4.502876   -1.105405   -0.018908
 H          6.644063   -1.572092   -0.020174
 C          3.683555    0.017396   -0.018374
 H          4.115084   -2.118460   -0.019266
 C         17.749309   -0.873313    0.019426
 C         18.474610   -2.045549    0.078079
 S         18.851236    0.502769   -0.052064
 C         19.892455   -1.866683    0.069744
 H         17.997651   -3.015413    0.126359
 C         20.233284   -0.540881    0.002458
 C         20.878783   -3.002789    0.127805
 H         21.909292   -2.636003    0.108606
 H         20.748827   -3.595236    1.041679
 H         20.748092   -3.685615   -0.720541
 C          6.914688    3.691827   -0.036994
 H          6.264549    3.693445   -0.920324
 H          6.264751    3.710918    0.846337
 H          7.487536    4.623297   -0.046102
 C          2.255226    0.088793   -0.018020
 S          1.275466   -1.371272   -0.019056
 C          1.435167    1.215466   -0.016643
 C         -0.231297   -0.444834   -0.017435
 C          0.068412    0.923599   -0.016293
 H          1.826379    2.227185   -0.015851
 C         -1.521908   -1.040683   -0.017038
 H         -0.700042    1.688590   -0.015311
 S         -2.941517    0.011719   -0.012496
 C         -1.916535   -2.397074   -0.019760
 C         -4.049515   -1.364299   -0.014268
 C         -3.305557   -2.554728   -0.018270
 C         -0.980091   -3.575076   -0.023939
 C         -5.460057   -1.180859   -0.011473
 H         -3.793181   -3.519888   -0.020040
 H         -0.330857   -3.577941   -0.907825
 H         -0.329834   -3.583364    0.859172
 H         -1.549916   -4.508158   -0.026439
 C         -6.036433    0.114857   -0.006939
 C         -6.396503   -2.294027   -0.012867
 C         -7.401836    0.362347   -0.003730
 H         -5.382647    0.981669   -0.005709
 C         -7.830838   -2.050937   -0.009617
 N         -6.083400   -3.586370   -0.017021
 C         -8.369056   -0.705960   -0.004871
 C         -7.942053    1.707315    0.001044
 N         -8.566423   -3.154402   -0.011368
 C         -9.736357   -0.457302   -0.001564
 C         -9.376696    1.947905    0.004476
 N         -7.208450    2.811717    0.002729
 C        -10.311976    0.834854    0.003164
 H        -10.389401   -1.324672   -0.002719
 N         -9.691503    3.240463    0.008690
 C        -11.727715    1.020306    0.006404
 C        -12.470567    2.204852    0.011220
 S        -12.833432   -0.356599    0.004556
 C        -13.865141    2.042775    0.013382
 H        -11.987408    3.172306    0.013118
 C        -14.252477    0.691136    0.010240
 C        -14.802469    3.220913    0.018552
 C        -15.548209    0.084970    0.010907
 H        -15.454033    3.229717   -0.863586
 H        -15.450748    3.224574    0.903143
 H        -14.232857    4.154279    0.020207
 C        -15.844253   -1.276796    0.007666
 S        -17.054325    1.009361    0.016144
 C        -17.218330   -1.569738    0.009263
 H        -15.076880   -2.043028    0.004198
 C        -18.032394   -0.447538    0.013782
 H        -17.609317   -2.581594    0.007133
 C        -19.472417   -0.371067    0.016447
 S        -20.456813   -1.830441    0.014355
 C        -20.285457    0.747122    0.020705
 C        -21.923625   -0.904268    0.019239
 C        -21.673705    0.441901    0.022275
 H        -19.896573    1.759972    0.022632
 H        -22.454946    1.193890    0.025528
 H        -22.878643   -1.412130    0.019546
 H         21.226839   -0.111794   -0.020319
 S         14.261760   -3.918782   -0.011351
 S         13.467389    4.542427    0.019342
 S         -7.512423   -4.440788   -0.016848
 S         -8.264686    4.095903    0.008346
       106
S1: Total Energy = -7368.24365163
 C         16.289622   -0.679617   -0.000664
 C         15.721847    0.586273   -0.000583
 C         14.325858    0.831536   -0.000181
 C         13.378762   -0.216359    0.000045
 C         13.919694   -1.552727   -0.000011
 C         15.353888   -1.788855   -0.000363
 H         16.363434    1.461671   -0.001065
 C         13.786843    2.167760   -0.000146
 C         11.985636    0.027080    0.000224
 C         11.418156    1.297162    0.000213
 C         12.353183    2.407999    0.000062
 H         11.344151   -0.848711    0.000297
 N         15.666652   -3.085922   -0.000254
 N         13.189093   -2.665382    0.000313
 N         14.518851    3.280423   -0.000279
 N         12.041466    3.703964    0.000089
 C          9.984466    1.492347    0.000272
 C          9.255080    2.675474   -0.000302
 S          8.885451    0.121274    0.001008
 C          7.855228    2.520301   -0.000251
 H          9.740383    3.641857   -0.000785
 C          7.465745    1.170541    0.000395
 C          6.173596    0.571051    0.000562
 C          5.878244   -0.800760    0.000699
 S          4.671605    1.496418    0.000675
 C          4.517396   -1.096423    0.000851
 H          6.649891   -1.562353    0.000613
 C          3.690055    0.033179    0.000828
 H          4.128002   -2.108659    0.000882
 C         17.731652   -0.878776   -0.001004
 C         18.459624   -2.052546   -0.004762
 S         18.834149    0.500759    0.003508
 C         19.876336   -1.871933   -0.004235
 H         17.982344   -3.023367   -0.007843
 C         20.216703   -0.543644    0.000043
 C         20.864269   -3.008144   -0.007941
 H         21.894348   -2.639572   -0.006505
 H         20.734529   -3.649851    0.872087
 H         20.734845   -3.643852   -0.892360
 C          6.923462    3.701370   -0.000885
 H          6.273356    3.709226   -0.884307
 H          6.273889    3.710574    0.882923
 H          7.495923    4.632740   -0.001760
 C          2.274184    0.096236    0.000830
 S          1.293013   -1.367591    0.001576
 C          1.446440    1.225931    0.000225
 C         -0.210136   -0.442177    0.000991
 C          0.086414    0.931704    0.000308
 H          1.836200    2.238122   -0.000330
 C         -1.499897   -1.039067    0.001203
 H         -0.685353    1.692998   -0.000147
 S         -2.920742    0.011459    0.000605
 C         -1.891959   -2.390551    0.001841
 C         -4.020973   -1.360356    0.001208
 C         -3.289144   -2.546082    0.001828
 C         -0.959552   -3.570822    0.002490
 C         -5.451266   -1.168196    0.001048
 H         -3.777772   -3.510651    0.002252
 H         -0.309452   -3.578683   -0.881001
 H         -0.309820   -3.577988    0.886263
 H         -1.531407   -4.502502    0.002738
 C         -6.017762    0.109219    0.000845
 C         -6.381964   -2.281041    0.001072
 C         -7.401934    0.357127    0.000619
 H         -5.370993    0.981473    0.000893
 C         -7.816333   -2.040541    0.000817
 N         -6.065136   -3.575697    0.001301
 C         -8.352914   -0.701844    0.000560
 C         -7.938788    1.695491    0.000429
 N         -8.550778   -3.150941    0.000857
 C         -9.738379   -0.454368    0.000264
 C         -9.373401    1.933892    0.000135
 N         -7.205286    2.806112    0.000510
 C        -10.306376    0.821624    0.000027
 H        -10.384967   -1.326424    0.000237
 N         -9.690268    3.228847    0.000000
 C        -11.737191    1.016439   -0.000285
 C        -12.471457    2.194182   -0.000514
 S        -12.840341   -0.357464   -0.000390
 C        -13.874936    2.032526   -0.000787
 H        -11.990458    3.162818   -0.000496
 C        -14.259002    0.687765   -0.000771
 C        -14.808520    3.214242   -0.001091
 C        -15.558743    0.076259   -0.000957
 H        -15.458862    3.223706   -0.884285
 H        -15.458786    3.224215    0.882158
 H        -14.235813    4.145913   -0.001379
 C        -15.855238   -1.282187   -0.001151
 S        -17.062315    1.002414   -0.000883
 C        -17.231956   -1.574090   -0.001273
 H        -15.089019   -2.049687   -0.001231
 C        -18.043993   -0.452331   -0.001164
 H        -17.623654   -2.585789   -0.001464
 C        -19.484598   -0.372374   -0.001253
 S        -20.471931   -1.830050   -0.001236
 C        -20.295851    0.746776   -0.001353
 C        -21.937950   -0.901441   -0.001381
 C        -21.685044    0.443942   -0.001422
 H        -19.905187    1.758957   -0.001389
 H        -22.464746    1.197642   -0.001510
 H        -22.893823   -1.407685   -0.001425
 H         21.210250   -0.113884    0.001491
 S         14.248772   -3.930835    0.000199
 S         13.462951    4.548017   -0.000139
 S         -7.492137   -4.426959    0.001185
 S         -8.266374    4.080611    0.000234
