       155
S0: Total Energy = -10624.1616736
 C          5.430619    1.512508   -0.477487
 C          4.848279    2.750108   -0.691096
 C          3.414265    2.744443   -0.714508
 C          2.867994    1.476285   -0.500222
 S          4.156150    0.318206   -0.265633
 C          2.878072    4.037995   -1.016231
 C          3.851061    4.981850   -1.194474
 S          5.501436    4.346875   -1.012470
 C          3.711107    6.414001   -1.513542
 O          4.709921    7.114613   -1.636512
 C          1.482636    1.085643   -0.441152
 C          0.409780    1.870680   -0.098671
 C         -0.848665    1.191133   -0.140041
 C         -0.702577   -0.180026   -0.505060
 S          0.984542   -0.568893   -0.835575
 C         -5.374842   -0.463996    0.088594
 C         -4.303375   -1.252856   -0.247456
 C         -3.043875   -0.572066   -0.211802
 C         -3.189489    0.800030    0.151770
 S         -4.876483    1.190780    0.479382
 C         -2.127235    1.707725    0.194150
 C         -1.765484   -1.088412   -0.546819
 H          0.516080    2.894301    0.234653
 H         -4.405825   -2.283630   -0.561252
 C         -2.340696    3.116180    0.565167
 C         -2.964824    3.619226    1.680734
 C         -3.039500    5.043685    1.703738
 C         -2.481880    5.645980    0.607502
 S         -1.849039    4.438835   -0.489398
 H         -3.340700    2.985908    2.477045
 H         -3.489656    5.606861    2.514993
 C         -1.549351   -2.495667   -0.920326
 C         -0.917420   -2.992712   -2.035163
 C         -0.843819   -4.416494   -2.064151
 C         -1.410331   -5.022604   -0.973850
 S         -2.051207   -3.821327    0.122654
 H         -0.537408   -2.356053   -2.826911
 H         -0.389719   -4.976921   -2.875145
 C         -6.760362   -0.855062    0.157138
 C         -7.312523   -2.120226    0.257395
 C         -8.745276   -2.147464    0.319541
 C         -9.320733   -0.876964    0.251202
 S         -8.062573    0.327130    0.103456
 C         -9.249094   -3.475574    0.505676
 C         -8.254273   -4.411334    0.563717
 S         -6.621174   -3.726969    0.399799
 C         -8.357752   -5.870310    0.746992
 O         -7.342509   -6.557414    0.773660
 C         -2.380033    7.109611    0.296498
 H         -2.901146    7.367847   -0.633153
 H         -2.830761    7.690003    1.107229
 H         -1.337813    7.434314    0.189068
 C         -1.519235   -6.487421   -0.671013
 H         -1.007912   -6.751172    0.262530
 H         -1.062219   -7.065152   -1.480250
 H         -2.563503   -6.807365   -0.574304
 C        -10.716126   -0.513991    0.268505
 C        -11.777468   -1.269646   -0.159784
 C        -13.050784   -0.630473   -0.005215
 C        -12.924627    0.680664    0.541925
 S        -11.239358    1.059827    0.894056
 C        -17.593648    0.932288    0.063575
 C        -16.559975    1.701972    0.487874
 C        -15.278548    1.056168    0.349164
 C        -15.406047   -0.254425   -0.198751
 S        -17.095957   -0.633883   -0.534040
 C        -14.323382   -1.123773   -0.385722
 C        -14.005672    1.549072    0.727842
 H        -11.655777   -2.235532   -0.631947
 H        -16.687472    2.695469    0.898819
 C        -14.515733   -2.470961   -0.947309
 C        -15.156148   -2.826455   -2.109351
 C        -15.202587   -4.234642   -2.332419
 C        -14.607592   -4.972682   -1.344110
 S        -13.972907   -3.917752   -0.101033
 H        -15.565083   -2.095985   -2.798917
 H        -15.660393   -4.688004   -3.205859
 C        -13.807137    2.896312    1.289931
 C        -13.177674    3.245264    2.460175
 C        -13.118933    4.653172    2.681820
 C        -13.694363    5.395197    1.684692
 S        -14.326040    4.345534    0.436380
 H        -12.786285    2.511349    3.156440
 H        -12.667035    5.103297    3.560023
 C        -14.470007   -6.462841   -1.245357
 H        -14.964108   -6.861390   -0.351159
 H        -14.928211   -6.933345   -2.120580
 H        -13.419533   -6.775975   -1.206374
 C        -13.815872    6.886594    1.582295
 H        -13.308437    7.278432    0.692602
 H        -13.361849    7.353836    2.461531
 H        -14.862667    7.209444    1.531221
 H        -18.645734    1.186668    0.062374
 C          6.825078    1.155119   -0.408730
 C          7.892026    1.995542   -0.211932
 S          7.341899   -0.528581   -0.603965
 C          9.162479    1.333769   -0.204965
 H          7.781575    3.056377   -0.027958
 C          9.030816   -0.075080   -0.385987
 C         10.441524    1.906313    0.015810
 C         10.107812   -0.965886   -0.348470
 C         11.519192    1.014716    0.053886
 C         10.644238    3.352914    0.197036
 C         11.386352   -0.393635   -0.126460
 C          9.906090   -2.413134   -0.529117
 S         13.209345    1.465235    0.272541
 C         11.304992    3.999104    1.214353
 S         10.083048    4.525119   -0.989732
 C         12.656558   -1.055960   -0.122558
 C          9.257318   -3.062437   -1.551046
 S         10.444175   -3.582904    0.672920
 C         13.723682   -0.218718    0.076903
 C         11.353977    5.415485    1.056226
 H         11.723617    3.475674    2.067205
 C         10.739784    5.867250   -0.082075
 H         12.771511   -2.113336   -0.321504
 C          9.199417   -4.478377   -1.386617
 H          8.850451   -2.541149   -2.410830
 C          9.794612   -4.928001   -0.238159
 C         15.120815   -0.579735    0.142300
 H         11.825388    6.082502    1.770994
 C         10.594151    7.278689   -0.567822
 H          8.733037   -5.146105   -2.103972
 C          9.921312   -6.337674    0.257990
 C         15.692489   -1.787293    0.542935
 S         16.385215    0.529647   -0.341388
 H         11.065957    7.425086   -1.546862
 H         11.070580    7.962714    0.141151
 H          9.541568    7.570207   -0.664515
 H          9.434211   -6.474515    1.230874
 H          9.449041   -7.021766   -0.453562
 H         10.969546   -6.640268    0.370727
 C         17.130030   -1.783828    0.442920
 C         15.198508   -3.024056    1.070321
 C         17.655757   -0.604945   -0.008620
 S         17.827822   -3.312680    0.966583
 C         16.196486   -3.920707    1.336783
 C         16.092370   -5.285667    1.881790
 O         17.103769   -5.959130    2.048166
 H         18.687641   -0.324543   -0.166374
 H        -10.299564   -3.717918    0.609439
 H          1.820690    4.251116   -1.113429
 H         14.151485   -3.231165    1.255329
 C         -9.739566   -6.476840    0.899911
 H        -10.251372   -6.061306    1.775547
 H        -10.359397   -6.261525    0.022027
 H         -9.639841   -7.557191    1.017895
 C          2.312581    6.977061   -1.680532
 H          1.781446    6.464981   -2.490994
 H          1.726347    6.841977   -0.764316
 H          2.385822    8.041231   -1.911074
 C         14.713584   -5.815726    2.228482
 H         14.250462   -5.204217    3.011555
 H         14.051697   -5.790188    1.355554
 H         14.809682   -6.843457    2.582798
       155
T1: Total Energy = -10624.1190716
 C          5.434566    1.565406   -0.161304
 C          4.843366    2.844513   -0.112160
 C          3.427666    2.868311   -0.098397
 C          2.845171    1.550078   -0.122801
 S          4.147816    0.335253   -0.181436
 C          2.917358    4.188245   -0.100227
 C          3.910630    5.153577   -0.101610
 S          5.525124    4.445896   -0.114579
 C          3.810773    6.611109   -0.102208
 O          4.827647    7.306519   -0.107327
 C          1.508137    1.161743   -0.098379
 C          0.363861    1.971967    0.070274
 C         -0.855749    1.276468    0.040562
 C         -0.677927   -0.140443   -0.125078
 S          1.035507   -0.546354   -0.283105
 C         -5.383240   -0.417253    0.192183
 C         -4.266290   -1.221907    0.041420
 C         -3.035053   -0.521024    0.071412
 C         -3.216801    0.887844    0.232535
 S         -4.929863    1.283980    0.379383
 C         -2.174014    1.812178    0.216708
 C         -1.717793   -1.057099   -0.105091
 H          0.427147    3.031278    0.267498
 H         -4.329799   -2.288047   -0.132508
 C         -2.424618    3.250427    0.371620
 C         -3.181388    3.884605    1.329089
 C         -3.265867    5.296668    1.153651
 C         -2.583349    5.761205    0.060426
 S         -1.813658    4.436182   -0.782452
 H         -3.644097    3.355133    2.154809
 H         -3.812659    5.951851    1.824215
 C         -1.471522   -2.499001   -0.262984
 C         -0.763563   -3.137123   -1.253353
 C         -0.678774   -4.549484   -1.077263
 C         -1.313057   -5.006378    0.047869
 S         -2.034476   -3.674400    0.920774
 H         -0.335164   -2.610809   -2.099511
 H         -0.167758   -5.210311   -1.770172
 C         -6.753172   -0.825693    0.210579
 C         -7.299576   -2.100771    0.319529
 C         -8.729360   -2.144513    0.321392
 C         -9.320675   -0.880518    0.195572
 S         -8.070546    0.339019    0.074982
 C         -9.225396   -3.473493    0.513963
 C         -8.223379   -4.397138    0.633766
 S         -6.597412   -3.692092    0.528377
 C         -8.315623   -5.853215    0.841381
 O         -7.293794   -6.525985    0.925349
 C         -2.452612    7.173075   -0.427970
 H         -2.850368    7.293314   -1.442715
 H         -3.008886    7.844294    0.233308
 H         -1.407473    7.505563   -0.444504
 C         -1.432678   -6.416092    0.545380
 H         -0.988178   -6.537600    1.540448
 H         -0.913938   -7.093221   -0.140104
 H         -2.478820   -6.737676    0.611953
 C        -10.714589   -0.536003    0.140265
 C        -11.758210   -1.339362   -0.252361
 C        -13.039544   -0.704874   -0.195790
 C        -12.943587    0.652671    0.232762
 S        -11.274176    1.082471    0.603373
 C        -17.596505    0.802205   -0.415691
 C        -16.583689    1.620119   -0.032443
 C        -15.293198    0.979585   -0.069903
 C        -15.391085   -0.377550   -0.497433
 S        -17.065841   -0.806483   -0.848886
 C        -14.295210   -1.247354   -0.568298
 C        -14.037438    1.520836    0.302567
 H        -11.614705   -2.340608   -0.635469
 H        -16.733288    2.645798    0.280249
 C        -14.455442   -2.644012   -1.004114
 C        -15.058048   -3.119034   -2.143572
 C        -15.079504   -4.542666   -2.231769
 C        -14.503101   -5.173457   -1.161487
 S        -13.917876   -3.994939   -0.008599
 H        -15.456401   -2.464454   -2.911156
 H        -15.506118   -5.084567   -3.069852
 C        -13.870377    2.916929    0.742432
 C        -13.285722    3.381677    1.895519
 C        -13.246818    4.804846    1.985172
 C        -13.792779    5.442958    0.903153
 S        -14.370989    4.273192   -0.261473
 H        -12.912901    2.721134    2.670980
 H        -12.830205    5.340862    2.832059
 C        -14.348802   -6.644951   -0.916010
 H        -14.868674   -6.964763   -0.004936
 H        -14.769389   -7.204360   -1.757111
 H        -13.296132   -6.934976   -0.811314
 C        -13.923193    6.916547    0.655968
 H        -13.386925    7.228873   -0.248165
 H        -13.505602    7.469881    1.502660
 H        -14.970160    7.220569    0.537317
 H        -18.650161    1.043093   -0.473543
 C          6.796580    1.201143   -0.196585
 C          7.910677    2.031510   -0.073992
 S          7.284637   -0.492876   -0.417518
 C          9.153222    1.356828   -0.160107
 H          7.833543    3.093593    0.114061
 C          8.991211   -0.056375   -0.332815
 C         10.460625    1.914825   -0.034103
 C         10.052282   -0.956508   -0.374261
 C         11.522480    1.008438   -0.074287
 C         10.694102    3.355931    0.130869
 C         11.356888   -0.398996   -0.247309
 C          9.824638   -2.401489   -0.538800
 S         13.232144    1.432228    0.015404
 C         11.466566    3.988978    1.076770
 S         10.023016    4.543825   -0.982564
 C         12.606619   -1.077801   -0.342163
 C          9.095902   -3.044795   -1.509409
 S         10.443052   -3.576324    0.619107
 C         13.704894   -0.257424   -0.221530
 C         11.513821    5.404892    0.923194
 H         11.964160    3.456307    1.879921
 C         10.787417    5.871252   -0.141279
 H         12.687749   -2.135125   -0.555387
 C          9.040240   -4.460381   -1.341760
 H          8.629399   -2.519735   -2.335962
 C          9.717182   -4.915337   -0.241652
 C         15.091676   -0.642679   -0.266338
 H         12.064227    6.061984    1.588876
 C         10.605380    7.287656   -0.598885
 H          8.516452   -5.123923   -2.022387
 C          9.871723   -6.326036    0.243421
 C         15.666866   -1.884032    0.019913
 S         16.345552    0.479661   -0.754345
 H         10.962957    7.434988   -1.624973
 H         11.169088    7.960515    0.054414
 H          9.552448    7.592153   -0.571136
 H          9.452043   -6.461661    1.247374
 H          9.349022   -7.007598   -0.434439
 H         10.924201   -6.632372    0.283976
 C         17.094737   -1.891499   -0.169358
 C         15.188202   -3.146401    0.495724
 C         17.612401   -0.692116   -0.575338
 S         17.800019   -3.458710    0.207336
 C         16.187077   -4.071277    0.638357
 C         16.095608   -5.469094    1.095289
 O         17.105826   -6.162048    1.155069
 H         18.637525   -0.416998   -0.779745
 H        -10.275844   -3.728025    0.579837
 H          1.867203    4.447510   -0.119398
 H         14.152904   -3.355880    0.735210
 C         -9.695169   -6.475039    0.947126
 H        -10.247046   -6.052507    1.794675
 H        -10.281371   -6.281414    0.041433
 H         -9.587107   -7.552034    1.086643
 C          2.424014    7.231498   -0.097353
 H          1.857056    6.927796   -0.985328
 H          1.854396    6.913346    0.783603
 H          2.525054    8.318387   -0.088927
 C         14.731584   -6.009470    1.482424
 H         14.301527   -5.426917    2.305204
 H         14.034969   -5.952662    0.637970
 H         14.840212   -7.049867    1.793555
       155
S1: Total Energy = -10624.0996268
 C          5.428634    1.535147   -0.279563
 C          4.837960    2.800471   -0.351620
 C          3.412166    2.807616   -0.377545
 C          2.851968    1.505382   -0.306977
 S          4.150014    0.311330   -0.218535
 C          2.888469    4.122435   -0.526044
 C          3.869117    5.087832   -0.591939
 S          5.502813    4.409121   -0.486128
 C          3.752131    6.538114   -0.743400
 O          4.760736    7.243880   -0.780924
 C          1.497227    1.109748   -0.288456
 C          0.372028    1.913660   -0.088478
 C         -0.855041    1.225672   -0.129208
 C         -0.684341   -0.184786   -0.337159
 S          1.025118   -0.586524   -0.523980
 C         -5.390687   -0.448951    0.032959
 C         -4.272236   -1.253892   -0.163213
 C         -3.041676   -0.563224   -0.123859
 C         -3.213342    0.845071    0.085708
 S         -4.923928    1.244347    0.266693
 C         -2.169171    1.762743    0.082085
 C         -1.728416   -1.100226   -0.331491
 H          0.446436    2.964432    0.150458
 H         -4.342681   -2.313033   -0.371436
 C         -2.406677    3.196959    0.283593
 C         -3.158720    3.807273    1.260639
 C         -3.228085    5.224818    1.132155
 C         -2.538692    5.718497    0.055913
 S         -1.781324    4.414543   -0.829571
 H         -3.627251    3.256154    2.068659
 H         -3.768652    5.863102    1.823684
 C         -1.488721   -2.535825   -0.531739
 C         -0.763615   -3.145775   -1.528863
 C         -0.688134   -4.562698   -1.397323
 C         -1.345807   -5.052860   -0.299445
 S         -2.079368   -3.747486    0.602019
 H         -0.319717   -2.595416   -2.351304
 H         -0.167809   -5.203347   -2.102088
 C         -6.752966   -0.847495    0.058530
 C         -7.312027   -2.129351    0.040372
 C         -8.737763   -2.168598    0.093405
 C         -9.326979   -0.889457    0.141225
 S         -8.066422    0.336185    0.118564
 C         -9.233355   -3.507736    0.142401
 C         -8.233604   -4.446530    0.108436
 S         -6.613968   -3.730512    0.027379
 C         -8.321607   -5.912927    0.138381
 O         -7.299833   -6.593332    0.097459
 C         -2.391670    7.144218   -0.384703
 H         -2.791534    7.304019   -1.393178
 H         -2.936882    7.799546    0.301212
 H         -1.342228    7.463487   -0.394125
 C         -1.481038   -6.477423    0.148831
 H         -1.060119   -6.632855    1.149405
 H         -0.948737   -7.133769   -0.546315
 H         -2.529522   -6.796629    0.180596
 C        -10.706132   -0.531239    0.187839
 C        -11.796009   -1.311641   -0.150944
 C        -13.054637   -0.665251    0.008266
 C        -12.911942    0.683911    0.460185
 S        -11.214529    1.085108    0.722960
 C        -17.597500    0.906484    0.146478
 C        -16.545548    1.701424    0.473287
 C        -15.272858    1.045975    0.326858
 C        -15.419846   -0.299252   -0.123372
 S        -17.123335   -0.697163   -0.360190
 C        -14.345318   -1.182958   -0.289718
 C        -13.983434    1.562823    0.622699
 H        -11.695551   -2.302112   -0.571868
 H        -16.656795    2.720934    0.820355
 C        -14.556472   -2.563977   -0.745251
 C        -15.283142   -3.003939   -1.826315
 C        -15.324582   -4.423342   -1.953349
 C        -14.639535   -5.088523   -0.971123
 S        -13.922664   -3.948400    0.144936
 H        -15.755603   -2.325765   -2.528455
 H        -15.843206   -4.937967   -2.755988
 C        -13.767663    2.946435    1.079547
 C        -13.094365    3.378862    2.196388
 C        -13.030802    4.799074    2.313642
 C        -13.646394    5.467458    1.288767
 S        -14.323261    4.330805    0.144677
 H        -12.674280    2.696885    2.927846
 H        -12.546411    5.311173    3.139016
 C        -14.469553   -6.567244   -0.788458
 H        -14.886289   -6.912539    0.165350
 H        -14.985708   -7.099315   -1.593315
 H        -13.413831   -6.864217   -0.810960
 C        -13.775853    6.947566    1.083823
 H        -13.306207    7.273795    0.148085
 H        -13.287542    7.477151    1.907569
 H        -14.824719    7.266267    1.052330
 H        -18.648712    1.163093    0.170964
 C          6.801611    1.175230   -0.255534
 C          7.898974    2.016602   -0.113564
 S          7.307306   -0.516336   -0.420067
 C          9.149689    1.353257   -0.139641
 H          7.802175    3.080885    0.053054
 C          9.006655   -0.065666   -0.282164
 C         10.449352    1.926664    0.022286
 C         10.074162   -0.957851   -0.258843
 C         11.517529    1.029207    0.046550
 C         10.664369    3.372076    0.159011
 C         11.370604   -0.385185   -0.096276
 C          9.863771   -2.407203   -0.395499
 S         13.220751    1.469673    0.184263
 C         11.417677    4.033602    1.102316
 S          9.997803    4.529986   -0.988913
 C         12.624610   -1.053685   -0.130217
 C          9.158698   -3.077651   -1.366005
 S         10.468706   -3.552041    0.799386
 C         13.716220   -0.220801    0.008100
 C         11.453969    5.445440    0.918806
 H         11.906572    3.523893    1.925383
 C         10.738647    5.881735   -0.166386
 H         12.720746   -2.114488   -0.317023
 C          9.110478   -4.489174   -1.168613
 H          8.706101   -2.574874   -2.213804
 C          9.769048   -4.914709   -0.045560
 C         15.101940   -0.594548    0.017312
 H         11.988165    6.122097    1.578013
 C         10.551505    7.285922   -0.657859
 H          8.605386   -5.171467   -1.844747
 C          9.923528   -6.313192    0.473532
 C         15.678603   -1.838756    0.304716
 S         16.366850    0.551137   -0.391388
 H         10.928979    7.414935   -1.679299
 H         11.094247    7.978758   -0.007726
 H          9.495010    7.579062   -0.659138
 H          9.484494   -6.429602    1.471595
 H          9.419535   -7.013385   -0.199463
 H         10.977080   -6.610526    0.542212
 C         17.113123   -1.826398    0.178317
 C         15.196422   -3.113807    0.734672
 C         17.635398   -0.613816   -0.180277
 S         17.821089   -3.391678    0.555046
 C         16.200088   -4.031919    0.903484
 C         16.106853   -5.437978    1.328937
 O         17.122823   -6.120020    1.422727
 H         18.665873   -0.325724   -0.333891
 H        -10.280690   -3.770216    0.220769
 H          1.835790    4.360383   -0.607424
 H         14.155331   -3.341393    0.927317
 C         -9.699011   -6.544650    0.222431
 H        -10.216220   -6.229187    1.135973
 H        -10.320045   -6.244234   -0.629445
 H         -9.589160   -7.630551    0.226097
 C          2.359410    7.133903   -0.855535
 H          1.837314    6.740482   -1.735777
 H          1.753651    6.888469    0.024709
 H          2.446749    8.218369   -0.943905
 C         14.733327   -6.003762    1.639387
 H         14.244914   -5.430869    2.435879
 H         14.085722   -5.959705    0.755888
 H         14.843662   -7.042539    1.955295
