       158
S0: Total Energy = -11147.4775224
 6          5.282794    1.679542   -0.467140
 6          4.732683    2.935732   -0.648845
 6          3.302426    2.964145   -0.682927
 6          2.715806    1.708466   -0.506847
16          3.979639    0.516372   -0.290117
 6          2.844850    4.289129   -0.982690
 6          3.829015    5.216244   -1.168637
16          5.443944    4.517433   -0.924113
 9          1.538392    4.588152   -1.047473
 6          3.761593    6.686239   -1.352033
 8          4.603231    7.410350   -0.855814
 8          2.757773    7.236085   -2.062815
 6          2.026289    6.528060   -3.082536
 1          2.564436    5.637646   -3.415055
 1          1.040446    6.251894   -2.707475
 1          1.925353    7.227186   -3.914570
 6          1.328054    1.314639   -0.468581
 6          0.243348    2.061953   -0.084442
 6         -0.999872    1.355854   -0.140279
 6         -0.829603    0.004415   -0.564237
16          0.860190   -0.334235   -0.927408
 6         -5.486339   -0.402719    0.061220
 6         -4.403608   -1.153792   -0.321465
 6         -3.157813   -0.449251   -0.266193
 6         -3.327989    0.901897    0.159513
16         -5.019219    1.242236    0.521768
 6         -2.285175    1.830462    0.230202
 6         -1.873361   -0.923930   -0.636471
 1          0.329633    3.079643    0.267276
 1         -4.488141   -2.168891   -0.687957
 6         -2.527459    3.215326    0.665991
 6         -3.156385    3.649483    1.808326
 6         -3.265947    5.068372    1.898084
 6         -2.730811    5.734142    0.826991
16         -2.073478    4.596442   -0.326539
 1         -3.509611    2.970739    2.577142
 1         -3.723327    5.582219    2.737548
 6         -1.632892   -2.308474   -1.074277
 6         -1.004923   -2.742650   -2.217194
 6         -0.903567   -4.161966   -2.310759
 6         -1.444706   -4.827621   -1.242581
16         -2.095538   -3.689388   -0.085947
 1         -0.647375   -2.063972   -2.984113
 1         -0.448692   -4.676244   -3.151323
 6         -6.861902   -0.827843    0.129157
 6         -7.377762   -2.108397    0.218951
 6         -8.805526   -2.175180    0.288403
 6         -9.425443   -0.924951    0.233878
16         -8.196583    0.312711    0.084883
 6         -9.225415   -3.531632    0.486068
 6         -8.216210   -4.446892    0.565008
16         -6.624552   -3.689929    0.339160
 9        -10.522663   -3.866010    0.559163
 6         -8.244067   -5.928529    0.618902
 8         -7.399570   -6.583313    0.038340
 8         -9.213669   -6.565677    1.303821
 6         -2.666010    7.212727    0.584228
 1         -3.194074    7.500394   -0.332804
 1         -3.131013    7.743409    1.420555
 1         -1.632326    7.567113    0.492693
 6         -1.522207   -6.306317   -1.004792
 1         -1.001088   -6.600764   -0.085986
 1         -1.057598   -6.838048   -1.840705
 1         -2.559340   -6.651542   -0.918899
 6         -9.933330   -5.968753    2.400202
 1         -9.401222   -5.104156    2.803198
 1        -10.931630   -5.675860    2.073948
 1        -10.004340   -6.744334    3.164770
 6        -10.823475   -0.565759    0.264742
 6        -11.897038   -1.300439   -0.167840
 6        -13.157779   -0.637044   -0.015409
 6        -13.009904    0.670045    0.536079
16        -11.320234    1.017179    0.894804
 6        -17.671289    1.008278    0.048103
 6        -16.624713    1.757734    0.477352
 6        -15.355263    1.088977    0.339257
 6        -15.505131   -0.217104   -0.214152
16        -17.201288   -0.564180   -0.554264
 6        -14.438550   -1.106094   -0.401840
 6        -14.074953    1.557456    0.723276
 1        -11.793077   -2.275724   -0.620687
 1        -16.734897    2.751968    0.891513
 6        -14.656189   -2.446059   -0.970773
 6        -15.311290   -2.780439   -2.131726
 6        -15.382202   -4.185120   -2.366147
 6        -14.791676   -4.940724   -1.387776
16        -14.128748   -3.907606   -0.142706
 1        -15.711909   -2.037541   -2.812848
 1        -15.852674   -4.623990   -3.240255
 6        -13.853366    2.898747    1.291057
 6        -13.225138    3.231641    2.466616
 6        -13.139940    4.637508    2.692998
 6        -13.693764    5.393795    1.694334
16        -14.337687    4.360508    0.438561
 1        -12.853177    2.487999    3.163245
 1        -12.685244    5.076071    3.575592
 6        -14.675067   -6.433617   -1.303925
 1        -15.163372   -6.832788   -0.406802
 1        -15.151906   -6.889136   -2.177138
 1        -13.628889   -6.761510   -1.281456
 6        -13.784997    6.887620    1.595894
 1        -13.264169    7.272016    0.710726
 1        -13.327455    7.342956    2.479537
 1        -14.824833    7.231287    1.539120
 1        -18.718539    1.281988    0.045599
 6          6.670139    1.293302   -0.401433
 6          7.740185    2.094042   -0.091949
16          7.169617   -0.366680   -0.763087
 6          9.002464    1.417088   -0.125992
 1          7.635985    3.128805    0.208770
 6          8.858209    0.037402   -0.458724
 6         10.281006    1.944619    0.188466
 6          9.922713   -0.869021   -0.489403
 6         11.345886    1.037710    0.158261
 6         10.494624    3.359681    0.532464
 6         11.201534   -0.341646   -0.174405
 6          9.706520   -2.284267   -0.831756
16         13.033088    1.436769    0.469793
 6         11.132480    3.880765    1.632795
16          9.978219    4.663527   -0.531141
 6         12.461904   -1.021344   -0.205597
 6          9.067400   -2.804186   -1.931850
16         10.212610   -3.589038    0.235883
 6         13.532423   -0.226541    0.110083
 6         11.198937    5.305215    1.634878
 1         11.521459    3.260921    2.433461
 6         10.620862    5.888457    0.538269
 1         12.567576   -2.058747   -0.487982
 6          8.990960   -4.228074   -1.930380
 1          8.683456   -2.183663   -2.734400
 6          9.562128   -4.812284   -0.830731
 6         14.932339   -0.588706    0.157690
 1         11.655825    5.882939    2.432010
 6         10.500835    7.346943    0.210394
 1          8.530850   -4.804610   -2.726500
 6          9.667881   -6.270851   -0.498003
 6         15.543420   -1.812797    0.429640
16         16.174095    0.600367   -0.180249
 1         10.998287    7.596187   -0.734539
 1         10.965758    7.941171    1.002960
 1          9.453782    7.660292    0.122577
 1          9.164489   -6.512873    0.445688
 1          9.200256   -6.863226   -1.290318
 1         10.711497   -6.594629   -0.405789
 6         16.977827   -1.758615    0.355264
 6         15.124370   -3.125394    0.823468
 6         17.473547   -0.521220    0.050536
16         17.729723   -3.312727    0.703628
 6         16.132719   -4.021332    1.035030
 9         13.826432   -3.447236    0.941341
 6         16.094914   -5.478410    1.305751
 8         16.934545   -6.218311    0.829709
 8         15.118449   -6.001782    2.073650
 6         14.405377   -5.248325    3.073225
 1         14.938281   -4.332680    3.339082
 1         13.404787   -5.007836    2.712896
 1         14.339718   -5.900568    3.945961
 1         18.499282   -0.197955   -0.057088
       158
T1: Total Energy = -11147.4337040
 6          5.288058    1.752938   -0.084951
 6          4.732293    3.044715    0.039533
 6          3.321740    3.107158    0.080329
 6          2.689572    1.811930   -0.002474
16          3.966092    0.568882   -0.135124
 6          2.900240    4.457797    0.163724
 6          3.909480    5.401240    0.166136
16          5.480891    4.613166    0.129117
 9          1.608754    4.815590    0.264887
 6          3.908743    6.861125    0.360549
 8          4.858623    7.422191    0.879134
 8          2.841324    7.598487   -0.020364
 6          1.998598    7.240085   -1.130743
 1          2.452415    6.456367   -1.741715
 1          1.025187    6.910165   -0.765725
 1          1.883740    8.147137   -1.728046
 6          1.352125    1.416988   -0.001535
 6          0.181477    2.190130    0.171656
 6         -1.015212    1.459157    0.113347
 6         -0.797591    0.051650   -0.081818
16          0.926690   -0.300974   -0.233388
 6         -5.493739   -0.364151    0.189569
 6         -4.353517   -1.134112    0.029941
 6         -3.143275   -0.399904    0.087070
 6         -3.366216    0.999285    0.276506
16         -5.091124    1.344108    0.418152
 6         -2.350757    1.953659    0.287270
 6         -1.809775   -0.894773   -0.091441
 1          0.218207    3.247934    0.374103
 1         -4.383947   -2.196240   -0.175666
 6         -2.647937    3.379915    0.466291
 6         -3.427988    3.970114    1.433714
 6         -3.564296    5.380147    1.280563
 6         -2.899452    5.886093    0.194486
16         -2.080067    4.604674   -0.667376
 1         -3.870375    3.410764    2.250841
 1         -4.134012    6.004818    1.961020
 6         -1.521812   -2.324889   -0.281538
 6         -0.788676   -2.918677   -1.281094
 6         -0.665160   -4.331940   -1.138461
 6         -1.294666   -4.833962   -0.030085
16         -2.060077   -3.544324    0.869031
 1         -0.369183   -2.360267   -2.110971
 1         -0.130738   -4.961191   -1.842952
 6         -6.851228   -0.812332    0.190333
 6         -7.358345   -2.102904    0.300311
 6         -8.783039   -2.191125    0.285385
 6         -9.421508   -0.951680    0.143229
16         -8.202330    0.302913    0.021390
 6         -9.193560   -3.545860    0.506498
 6         -8.177536   -4.441555    0.682413
16         -6.591638   -3.662298    0.529676
 9        -10.486901   -3.902522    0.512354
 6         -8.181768   -5.919914    0.791122
 8         -7.282781   -6.577270    0.302196
 8         -9.190169   -6.552205    1.422662
 6         -2.822353    7.309830   -0.270088
 1         -3.210134    7.429514   -1.288746
 1         -3.416535    7.945493    0.393288
 1         -1.792620    7.687527   -0.264071
 6         -1.378213   -6.258318    0.431515
 1         -0.943495   -6.391014    1.429437
 1         -0.830203   -6.902245   -0.263002
 1         -2.414898   -6.612813    0.474886
 6         -9.994228   -5.936339    2.447538
 1         -9.511992   -5.043078    2.850722
 1        -10.976267   -5.683682    2.046815
 1        -10.095268   -6.685045    3.235279
 6        -10.818008   -0.610313    0.075754
 6        -11.870041   -1.391556   -0.336996
 6        -13.137332   -0.727726   -0.309082
 6        -13.022492    0.627685    0.121798
16        -11.354139    1.021631    0.528749
 6        -17.654994    0.877669   -0.625404
 6        -16.633463    1.673488   -0.218956
 6        -15.356729    1.005445   -0.229916
 6        -15.474029   -0.348692   -0.662320
16        -17.149951   -0.740928   -1.050599
 6        -14.396366   -1.242557   -0.711004
 6        -14.098225    1.519412    0.170209
 1        -11.741696   -2.402972   -0.692955
 1        -16.767815    2.701691    0.092362
 6        -14.580567   -2.632858   -1.157102
 6        -15.174659   -3.083986   -2.311418
 6        -15.230250   -4.505317   -2.410349
 6        -14.688997   -5.157311   -1.333813
16        -14.093148   -4.002669   -0.163906
 1        -15.541561   -2.414144   -3.081509
 1        -15.654206   -5.030887   -3.260089
 6        -13.910559    2.911171    0.615559
 6        -13.343225    3.362109    1.782694
 6        -13.274851    4.784047    1.874932
 6        -13.780933    5.434861    0.781133
16        -14.357206    4.278909   -0.398256
 1        -13.003668    2.692952    2.566023
 1        -12.866704    5.310098    2.732128
 6        -14.573271   -6.633940   -1.098075
 1        -15.104655   -6.946765   -0.191218
 1        -15.004950   -7.176395   -1.944656
 1        -13.528692   -6.950490   -0.992128
 6        -13.873107    6.911134    0.532739
 1        -13.308806    7.212259   -0.358024
 1        -13.463837    7.454627    1.389795
 1        -14.910051    7.238010    0.389546
 1        -18.701776    1.141261   -0.705294
 6          6.637164    1.353152   -0.159414
 6          7.780004    2.146023   -0.037411
16          7.068178   -0.347439   -0.438711
 6          8.998169    1.436624   -0.167849
 1          7.743824    3.204782    0.179509
 6          8.789462    0.034266   -0.376202
 6         10.324506    1.951298   -0.054575
 6          9.819755   -0.897272   -0.462073
 6         11.356003    1.013695   -0.142088
 6         10.606492    3.379092    0.145171
 6         11.144344   -0.383424   -0.345887
 6          9.539923   -2.328203   -0.663561
16         13.077941    1.383047   -0.078358
 6         11.417871    3.960219    1.091752
16          9.952558    4.619558   -0.920920
 6         12.369102   -1.099313   -0.480879
 6          8.769334   -2.913585   -1.639423
16         10.138624   -3.559330    0.443102
 6         13.493934   -0.315363   -0.366900
 6         11.508564    5.377614    0.976568
 1         11.913549    3.389387    1.869430
 6         10.776857    5.897426   -0.058984
 1         12.415327   -2.156964   -0.694718
 6          8.665065   -4.330080   -1.513872
 1          8.307932   -2.346606   -2.440779
 6          9.345971   -4.842577   -0.441268
 6         14.876117   -0.713609   -0.475339
 1         12.093267    5.997409    1.648650
 6         10.633032    7.331564   -0.472679
 1          8.105468   -4.953514   -2.203809
 6          9.458932   -6.272812   -0.004439
 6         15.491187   -1.947929   -0.247266
16         16.095238    0.438152   -0.989889
 1         10.970202    7.495834   -1.503071
 1         11.235521    7.965879    0.184487
 1          9.592472    7.671262   -0.409073
 1          9.064959   -6.423717    1.007717
 1          8.888605   -6.911239   -0.685904
 1         10.499010   -6.620275   -0.007391
 6         16.906373   -1.927745   -0.495369
 6         15.099662   -3.240907    0.227763
 6         17.387753   -0.709394   -0.888629
16         17.665841   -3.488771   -0.203606
 6         16.109700   -4.154462    0.337465
 9         13.820899   -3.533958    0.513545
 6         16.078505   -5.603504    0.648286
 8         16.842860   -6.371082    0.095343
 8         15.190244   -6.088361    1.538793
 6         14.623687   -5.299099    2.602585
 1         15.204276   -4.390847    2.778874
 1         13.590817   -5.043009    2.364957
 1         14.654962   -5.932013    3.491316
 1         18.399669   -0.414591   -1.128186
       158
S1: Total Energy = -11147.4140900
 6          5.280419    1.755065   -0.174697
 6          4.727641    3.038959   -0.164458
 6          3.305284    3.092599   -0.167262
 6          2.692697    1.808688   -0.164777
16          3.963508    0.576518   -0.153262
 6          2.873105    4.447388   -0.235621
 6          3.872544    5.390540   -0.293605
16          5.462658    4.623034   -0.203806
 9          1.573997    4.791689   -0.219034
 6          3.852814    6.862408   -0.244624
 8          4.782252    7.482550    0.243147
 8          2.789407    7.547098   -0.724019
 6          1.984070    7.076765   -1.820288
 1          2.452983    6.231508   -2.329076
 1          0.996238    6.790657   -1.456692
 1          1.895502    7.916151   -2.513503
 6          1.337910    1.405658   -0.170474
 6          0.184212    2.165432    0.046831
 6         -1.017206    1.436531   -0.018535
 6         -0.801617    0.038362   -0.265046
16          0.918645   -0.299883   -0.460717
 6         -5.496578   -0.388375    0.081618
 6         -4.351412   -1.152064   -0.129585
 6         -3.144807   -0.423750   -0.066120
 6         -3.362944    0.972410    0.178094
16         -5.086710    1.312050    0.362497
 6         -2.350536    1.924198    0.199894
 6         -1.813830   -0.911398   -0.287337
 1          0.225440    3.214096    0.294537
 1         -4.385354   -2.205097   -0.375613
 6         -2.640732    3.343518    0.432810
 6         -3.408222    3.902284    1.429230
 6         -3.536060    5.317481    1.330057
 6         -2.877672    5.859270    0.256944
16         -2.075706    4.606079   -0.660062
 1         -3.844796    3.316131    2.230512
 1         -4.093713    5.920374    2.039481
 6         -1.527512   -2.331232   -0.531070
 6         -0.776406   -2.885170   -1.541723
 6         -0.656957   -4.302385   -1.456237
 6         -1.306458   -4.849397   -0.380584
16         -2.087349   -3.598192    0.557686
 1         -0.344711   -2.294587   -2.342416
 1         -0.111647   -4.902713   -2.177333
 6         -6.844151   -0.832372    0.088213
 6         -7.357887   -2.133248    0.081699
 6         -8.778605   -2.221549    0.108900
 6         -9.423781   -0.967300    0.120741
16         -8.199518    0.298623    0.090623
 6         -9.179701   -3.591262    0.197024
 6         -8.157909   -4.501745    0.240342
16         -6.585283   -3.700575    0.116270
 9        -10.471009   -3.957373    0.211202
 6         -8.150356   -5.980638    0.195130
 8         -7.248146   -6.577813   -0.362328
 8         -9.152687   -6.684341    0.759842
 6         -2.792663    7.298647   -0.154455
 1         -3.210951    7.463804   -1.154637
 1         -3.354969    7.916877    0.551803
 1         -1.756907    7.659146   -0.167671
 6         -1.398732   -6.291776    0.018610
 1         -0.980286   -6.467371    1.016858
 1         -0.840379   -6.906459   -0.693885
 1         -2.436418   -6.645747    0.030278
 6         -9.935861   -6.197609    1.866459
 1         -9.460601   -5.339350    2.346469
 1        -10.934756   -5.927868    1.522235
 1         -9.997887   -7.025349    2.575528
 6        -10.807182   -0.614255    0.144240
 6        -11.905750   -1.378060   -0.205765
 6        -13.151722   -0.699569   -0.091828
 6        -12.992018    0.654792    0.338352
16        -11.295304    1.023222    0.640291
 6        -17.659161    0.974774   -0.110257
 6        -16.598840    1.752893    0.231775
 6        -15.338500    1.066903    0.132747
 6        -15.503438   -0.282846   -0.297821
16        -17.208557   -0.647177   -0.574627
 6        -14.446116   -1.194171   -0.417336
 6        -14.046347    1.560597    0.455935
 1        -11.815312   -2.384979   -0.583252
 1        -16.696894    2.780725    0.557482
 6        -14.680242   -2.576601   -0.855484
 6        -15.389267   -3.012647   -1.950774
 6        -15.468169   -4.431306   -2.056294
 6        -14.830925   -5.098812   -1.043000
16        -14.111139   -3.962123    0.072753
 1        -15.820602   -2.332790   -2.677313
 1        -15.977568   -4.944761   -2.865499
 6        -13.811774    2.946869    0.894599
 6        -13.160152    3.383688    2.022685
 6        -13.067569    4.803893    2.117536
 6        -13.638971    5.467640    1.064338
16        -14.309521    4.326441   -0.078928
 1        -12.776773    2.705663    2.777619
 1        -12.594992    5.319574    2.947484
 6        -14.708317   -6.578594   -0.833233
 1        -15.147276   -6.894576    0.120756
 1        -15.230568   -7.108385   -1.635602
 1        -13.661945   -6.906863   -0.838023
 6        -13.728602    6.946359    0.830349
 1        -13.224758    7.245136   -0.096699
 1        -13.252386    7.479459    1.658849
 1        -14.768584    7.287590    0.762563
 1        -18.704510    1.255373   -0.119479
 6          6.641093    1.352431   -0.193349
 6          7.769164    2.147282   -0.023743
16          7.085666   -0.343132   -0.461661
 6          8.995443    1.444799   -0.108771
 1          7.715048    3.202654    0.207205
 6          8.801880    0.041543   -0.326561
 6         10.316542    1.964216    0.061123
 6          9.837121   -0.887160   -0.367912
 6         11.352721    1.030472    0.017616
 6         10.583849    3.391704    0.272109
 6         11.155764   -0.368817   -0.195615
 6          9.570294   -2.317790   -0.580967
16         13.070721    1.404864    0.149651
 6         11.375238    3.974851    1.235657
16          9.940465    4.633560   -0.799797
 6         12.384120   -1.079007   -0.283090
 6          8.827422   -2.903478   -1.578620
16         10.143978   -3.550578    0.537558
 6         13.505780   -0.291955   -0.123803
 6         11.459081    5.392480    1.127828
 1         11.858829    3.404666    2.021300
 6         10.742353    5.912136    0.081123
 1         12.441805   -2.135158   -0.500123
 6          8.724883   -4.320276   -1.459921
 1          8.386783   -2.336128   -2.391244
 6          9.378821   -4.833545   -0.370796
 6         14.888333   -0.683195   -0.180494
 1         12.027440    6.013268    1.812885
 6         10.597291    7.346985   -0.329056
 1          8.186419   -4.943738   -2.166432
 6          9.484640   -6.264668    0.064643
 6         15.501180   -1.927898    0.017416
16         16.128022    0.499229   -0.571436
 1         10.955612    7.518273   -1.351170
 1         11.180737    7.982603    0.343850
 1          9.553045    7.678626   -0.287162
 1          9.065637   -6.419610    1.066086
 1          8.933551   -6.902598   -0.632893
 1         10.525445   -6.609269    0.086867
 6         16.927097   -1.887167   -0.155896
 6         15.098862   -3.243695    0.406247
 6         17.420275   -0.648672   -0.461505
16         17.684734   -3.455676    0.095395
 6         16.110323   -4.157736    0.522775
 9         13.810415   -3.561879    0.612553
 6         16.076851   -5.618754    0.760110
 8         16.884616   -6.352569    0.222119
 8         15.136924   -6.155240    1.565349
 6         14.508003   -5.430313    2.639399
 1         15.063835   -4.523928    2.889654
 1         13.483520   -5.176799    2.365188
 1         14.506931   -6.107035    3.496025
 1         18.441479   -0.338699   -0.632889
