       134
S0: Total Energy = -9639.31248294
 C         -4.231519    4.094783    0.396731
 C         -5.143084    5.119072    0.212255
 C         -6.514824    4.709903    0.203962
 C         -6.690826    3.337735    0.402702
 S         -5.118342    2.593351    0.618117
 C         -7.358698    5.829056   -0.094144
 C         -6.709256    7.011255   -0.302695
 S         -4.954249    6.839722   -0.087241
 F         -8.695512    5.714846   -0.133949
 C         -7.222708    8.390325   -0.482464
 O         -6.623962    9.337509   -0.009207
 O         -8.365944    8.608350   -1.160636
 C         -8.879722    7.708371   -2.161963
 H         -8.109313    7.017440   -2.511238
 H         -9.727835    7.153018   -1.760649
 H         -9.207184    8.340702   -2.989048
 C        -10.212529   -0.641929    0.304189
 C         -9.665076   -1.848933   -0.042413
 C        -10.603050   -2.932582   -0.073587
 C        -11.921346   -2.501103    0.258367
 S        -11.952597   -0.774918    0.615736
 C        -13.179717   -6.968116   -0.486479
 C        -13.745330   -5.783438   -0.143473
 C        -12.801864   -4.693767   -0.109941
 C        -11.484513   -5.126928   -0.440929
 S        -11.461766   -6.855604   -0.793639
 C        -10.365533   -4.283191   -0.428986
 C        -13.038008   -3.343234    0.246402
 H         -8.615623   -1.971474   -0.281996
 H        -14.796276   -5.671883    0.091820
 C         -9.026984   -4.791543   -0.772784
 C         -8.642294   -5.482997   -1.895966
 C         -7.269705   -5.870737   -1.889029
 C         -6.591746   -5.488883   -0.761702
 S         -7.659847   -4.630948    0.325443
 H         -9.320401   -5.690043   -2.716773
 C        -14.376773   -2.832957    0.591192
 C        -14.765322   -2.160259    1.724107
 C        -16.136388   -1.765894    1.715142
 C        -16.808615   -2.124846    0.577016
 S        -15.736805   -2.968480   -0.518133
 H        -14.091587   -1.971412    2.553001
 C         -5.151348   -5.721927   -0.414693
 H         -5.041681   -6.306598    0.506554
 H         -4.663159   -6.273928   -1.223714
 H         -4.607592   -4.780269   -0.271858
 C        -18.245880   -1.879860    0.225035
 H        -18.347466   -1.276160   -0.684804
 H        -18.738085   -1.342935    1.041723
 H        -18.791898   -2.816341    0.059242
 H        -13.670350   -7.928222   -0.581732
 C         -9.557490    0.638067    0.429429
 C        -10.098882    1.852292    0.812248
 S         -7.850099    0.825101    0.068317
 C         -9.169701    2.914619    0.836745
 H        -11.142102    1.972261    1.084100
 C         -7.889193    2.540809    0.465205
 H         -9.422629    3.921143    1.140707
 C         -2.793878    4.150746    0.439237
 C         -1.989763    5.255468    0.662212
 S         -1.805984    2.721987    0.170815
 C         -0.607337    4.964755    0.625998
 H         -2.381043    6.241876    0.882962
 C         -0.318794    3.634920    0.382446
 H          0.159512    5.714388    0.788805
 C          0.969170    2.990668    0.293458
 C          1.246696    1.667964    0.063948
 S          2.448626    3.946033    0.492617
 C          2.644136    1.357017    0.038951
 H          0.475192    0.924550   -0.096696
 C          3.449394    2.515216    0.250555
 C          3.255055    0.101788   -0.211398
 C          4.847334    2.504364    0.215951
 C          4.653080    0.090646   -0.245385
 C          2.479266   -1.131349   -0.427482
 C          5.458347    1.248680   -0.033592
 C          5.623259    3.737361    0.431691
 S          5.653138   -1.340929   -0.484735
 C          2.553957   -2.010195   -1.480843
 S          1.320148   -1.720097    0.759836
 C          6.855678    0.937448   -0.058648
 C          5.546181    4.618195    1.483298
 S          6.786643    4.322870   -0.753015
 C          7.132868   -0.385535   -0.287253
 C          1.688153   -3.136328   -1.350428
 H          3.196699   -1.843072   -2.338478
 C          0.948673   -3.135925   -0.197383
 H          7.627745    1.681299    0.097216
 C          6.413624    5.743075    1.353648
 H          4.900740    4.453338    2.339343
 C          7.156716    5.739983    0.202905
 C          8.420531   -1.030483   -0.374192
 C         -0.055203   -4.148355    0.268148
 C          8.162727    6.750701   -0.261694
 C          8.708351   -2.352000   -0.665235
 S          9.905019   -0.138939   -0.085267
 H          0.232507   -4.600272    1.224960
 H         -0.138173   -4.950565   -0.471487
 H         -1.050090   -3.706428    0.400841
 H          7.875689    7.204033   -1.218048
 H          8.247543    7.552067    0.478595
 H          9.156656    6.306964   -0.394721
 C         10.088064   -2.650907   -0.679257
 H          7.941390   -3.088085   -0.881120
 C         10.894536   -1.563229   -0.390790
 H         10.484071   -3.628693   -0.917358
 C         12.332997   -1.483571   -0.345058
 C         13.293411   -2.462044   -0.078576
 S         13.150403    0.030486   -0.681784
 C         14.638752   -1.972700   -0.132407
 C         13.288627   -3.836815    0.325458
 C         14.757329   -0.627179   -0.418085
 S         15.822405   -3.214589    0.252415
 C         14.517698   -4.379432    0.566899
 F         12.148765   -4.539033    0.427040
 C         15.950275    0.179968   -0.529929
 C         14.929120   -5.774862    0.851576
 C         17.233572   -0.240600   -0.820750
 S         15.927082    1.916611   -0.257558
 O         15.969688   -6.215876    0.401638
 O         14.146978   -6.575223    1.601967
 C         18.185618    0.817257   -0.831078
 H         17.480842   -1.269420   -1.057513
 C         17.631595    2.037928   -0.556264
 C         13.210395   -6.079877    2.578550
 H         19.238765    0.674736   -1.046339
 H         18.117212    3.003223   -0.508402
 H         13.425391   -5.043525    2.848164
 H         12.193832   -6.164172    2.193495
 H         13.330032   -6.719013    3.455126
 H          6.489186    6.530560    2.096780
 H          1.611151   -3.922586   -2.094748
 H         -6.796106   -6.413407   -2.701004
 H        -16.613004   -1.235566    2.533500
       134
T1: Total Energy = -9639.27292981
 C         -4.289155    4.186190    0.229421
 C         -5.240601    5.227959    0.344070
 C         -6.592977    4.828404    0.364275
 C         -6.770169    3.396617    0.270109
 S         -5.155951    2.636026    0.148921
 C         -7.431616    5.965111    0.480586
 C         -6.785124    7.185015    0.521788
 S         -5.043209    6.949530    0.491507
 F         -8.769276    5.878803    0.581664
 C         -7.257292    8.559932    0.758553
 O         -6.537615    9.379745    1.303140
 O         -8.504425    8.926546    0.389707
 C         -9.193979    8.346332   -0.733129
 H         -8.516099    7.765682   -1.362976
 H        -10.009948    7.714766   -0.380272
 H         -9.595764    9.184567   -1.306129
 C        -10.085386   -0.692841    0.087747
 C         -9.450348   -1.911622   -0.070838
 C        -10.330016   -3.032736   -0.107397
 C        -11.699831   -2.641489    0.014992
 S        -11.848551   -0.892666    0.199649
 C        -12.673361   -7.218502   -0.436143
 C        -13.323184   -6.035727   -0.284406
 C        -12.435326   -4.903023   -0.243915
 C        -11.070801   -5.296789   -0.365855
 S        -10.936879   -7.048050   -0.539138
 C         -9.996080   -4.400045   -0.297592
 C        -12.768424   -3.536400   -0.053378
 H         -8.376271   -1.998302   -0.180111
 H        -14.399032   -5.955984   -0.192110
 C         -8.606794   -4.867646   -0.421635
 C         -8.060534   -5.658696   -1.404056
 C         -6.684529   -5.967444   -1.193576
 C         -6.163927   -5.425210   -0.048216
 S         -7.388990   -4.510407    0.800159
 H         -8.624646   -5.991605   -2.268499
 C        -14.160322   -3.069025    0.073226
 C        -14.719046   -2.324456    1.083248
 C        -16.092918   -2.005461    0.868107
 C        -16.597745   -2.494910   -0.307296
 S        -15.359619   -3.370094   -1.179803
 H        -14.165660   -2.030527    1.968701
 C         -4.767125   -5.538351    0.486108
 H         -4.744848   -6.002960    1.479139
 H         -4.165111   -6.155516   -0.187871
 H         -4.281528   -4.558575    0.571864
 C        -17.986998   -2.357460   -0.855704
 H        -17.996632   -1.837528   -1.821190
 H        -18.602622   -1.781905   -0.157641
 H        -18.466629   -3.332430   -1.004022
 H        -13.110958   -8.206685   -0.495592
 C         -9.500547    0.598852    0.163366
 C        -10.137797    1.846441    0.279475
 S         -7.748426    0.821141    0.119677
 C         -9.283308    2.933750    0.328207
 H        -11.217840    1.940889    0.323737
 C         -7.903694    2.591478    0.252635
 H         -9.621770    3.954482    0.415365
 C         -2.889640    4.248952    0.191148
 C         -2.050065    5.383241    0.221109
 S         -1.904778    2.781324    0.100251
 C         -0.692768    5.080102    0.174335
 H         -2.424131    6.398241    0.268258
 C         -0.408234    3.711565    0.103468
 H          0.084756    5.836295    0.186597
 C          0.864504    3.071176    0.045155
 C          1.136698    1.721979   -0.063188
 S          2.356347    4.030738    0.118231
 C          2.525041    1.404261   -0.088193
 H          0.357502    0.973515   -0.140922
 C          3.342262    2.574622   -0.010152
 C          3.126222    0.123426   -0.228784
 C          4.736290    2.550806   -0.076483
 C          4.521890    0.101197   -0.292597
 C          2.340215   -1.118249   -0.306436
 C          5.336755    1.270527   -0.213466
 C          5.524012    3.792936   -0.002394
 S          5.512485   -1.352603   -0.407312
 C          2.404245   -2.106251   -1.259694
 S          1.180840   -1.567066    0.940800
 C          6.729422    0.951840   -0.234407
 C          5.482609    4.770522    0.962029
 S          6.653420    4.253847   -1.271951
 C          6.998524   -0.390695   -0.334567
 C          1.530715   -3.204484   -1.006519
 H          3.043349   -2.036801   -2.133304
 C          0.795581   -3.074222    0.142211
 H          7.506911    1.703300   -0.167314
 C          6.350296    5.871754    0.699274
 H          4.862963    4.692701    1.848934
 C          7.057973    5.753346   -0.467604
 C          8.281412   -1.045665   -0.376403
 C         -0.215169   -4.022138    0.715910
 C          8.053346    6.707867   -1.057145
 C          8.561479   -2.392132   -0.534353
 S          9.772817   -0.135667   -0.200828
 H          0.064679   -4.360247    1.720745
 H         -0.296906   -4.904716    0.074194
 H         -1.209086   -3.564109    0.789411
 H          7.739897    7.067717   -2.044442
 H          8.162572    7.576953   -0.401298
 H          9.041401    6.247045   -1.174919
 C          9.939092   -2.696882   -0.535288
 H          7.789259   -3.142928   -0.663417
 C         10.753212   -1.588423   -0.370219
 H         10.329079   -3.695663   -0.676157
 C         12.191817   -1.511316   -0.346635
 C         13.151365   -2.461626    0.011115
 S         13.011386   -0.041326   -0.838857
 C         14.497351   -1.984043   -0.098293
 C         13.145679   -3.787905    0.553397
 C         14.617713   -0.674302   -0.518492
 S         15.680244   -3.182402    0.406973
 C         14.374806   -4.305464    0.844889
 F         12.005032   -4.473571    0.730709
 C         15.812009    0.114043   -0.715717
 C         14.785228   -5.664281    1.272849
 C         17.091558   -0.336821   -0.976269
 S         15.796167    1.868511   -0.606054
 O         15.824500   -6.150977    0.869455
 O         14.004061   -6.381120    2.104112
 C         18.046591    0.711862   -1.092702
 H         17.333496   -1.384197   -1.118321
 C         17.498373    1.954920   -0.928430
 C         13.067759   -5.787416    3.024438
 H         19.097493    0.546106   -1.302171
 H         17.987360    2.918607   -0.974464
 H         13.277456   -4.726783    3.179387
 H         12.050754   -5.918441    2.653851
 H         13.193115   -6.327050    3.964814
 H          6.451714    6.726000    1.361093
 H          1.444444   -4.065054   -1.662244
 H         -6.094223   -6.570220   -1.876413
 H        -16.692580   -1.433900    1.569427
       134
S1: Total Energy = -9639.25077538
 C         -4.303094    4.217444    0.230782
 C         -5.248888    5.249358    0.274430
 C         -6.610543    4.833403    0.279450
 C         -6.771717    3.421251    0.255375
 S         -5.167728    2.672463    0.217137
 C         -7.462431    5.976435    0.282862
 C         -6.828706    7.195344    0.267472
 S         -5.073768    6.985561    0.318289
 F         -8.802536    5.878762    0.328032
 C         -7.326515    8.576192    0.394440
 O         -6.643353    9.438470    0.919802
 O         -8.558801    8.902176   -0.054994
 C         -9.189234    8.241950   -1.168250
 H         -8.478262    7.625733   -1.723201
 H        -10.017923    7.628326   -0.813323
 H         -9.567177    9.036060   -1.815600
 C        -10.065847   -0.713490    0.121113
 C         -9.426208   -1.921359   -0.079268
 C        -10.293934   -3.050220   -0.103146
 C        -11.663757   -2.675310    0.070749
 S        -11.820700   -0.931624    0.289330
 C        -12.610193   -7.254134   -0.425100
 C        -13.264617   -6.078902   -0.234324
 C        -12.386383   -4.939451   -0.204929
 C        -11.022669   -5.318014   -0.376432
 S        -10.879866   -7.066069   -0.580196
 C         -9.953683   -4.413117   -0.326388
 C        -12.725540   -3.578597    0.020156
 H         -8.355686   -1.995049   -0.226827
 H        -14.337541   -6.010568   -0.105774
 C         -8.566113   -4.865460   -0.498734
 C         -8.046252   -5.657228   -1.495851
 C         -6.661432   -5.952246   -1.332270
 C         -6.106034   -5.399349   -0.208184
 S         -7.308259   -4.490549    0.677794
 H         -8.636333   -5.998565   -2.339354
 C        -14.116703   -3.126785    0.197297
 C        -14.649484   -2.396956    1.231987
 C        -16.032130   -2.088102    1.063889
 C        -16.569950   -2.570416   -0.099819
 S        -15.353040   -3.426294   -1.019863
 H        -14.070800   -2.106775    2.102358
 C         -4.690858   -5.498114    0.277983
 H         -4.630359   -5.960766    1.270386
 H         -4.106308   -6.110647   -0.415256
 H         -4.212230   -4.513471    0.345950
 C        -17.976827   -2.439464   -0.602897
 H        -18.020691   -1.912318   -1.563518
 H        -18.574284   -1.873948    0.118713
 H        -18.453682   -3.416917   -0.743766
 H        -13.041234   -8.245099   -0.485971
 C         -9.493081    0.589862    0.197883
 C        -10.133760    1.818332    0.372533
 S         -7.754518    0.837769    0.068712
 C         -9.277849    2.919872    0.406568
 H        -11.210352    1.903664    0.476904
 C         -7.919625    2.593896    0.257217
 H         -9.621806    3.932816    0.550165
 C         -2.892101    4.279406    0.209442
 C         -2.060964    5.414417    0.235361
 S         -1.907496    2.816041    0.147197
 C         -0.701027    5.118175    0.205532
 H         -2.441055    6.427641    0.274010
 C         -0.407505    3.748708    0.153909
 H          0.072491    5.878645    0.217376
 C          0.857584    3.114738    0.113724
 C          1.133429    1.753208    0.017561
 S          2.352505    4.066278    0.190307
 C          2.507087    1.433462    0.009586
 H          0.350141    1.010272   -0.068986
 C          3.335803    2.603777    0.081630
 C          3.108112    0.139495   -0.119663
 C          4.723128    2.574270    0.017155
 C          4.497947    0.111707   -0.182269
 C          2.314933   -1.094564   -0.189575
 C          5.323533    1.280958   -0.107929
 C          5.519058    3.808969    0.082490
 S          5.484991   -1.348372   -0.282677
 C          2.407352   -2.112169   -1.110781
 S          1.107124   -1.501976    1.027574
 C          6.700911    0.962091   -0.111274
 C          5.454474    4.813180    1.019160
 S          6.691817    4.229287   -1.162879
 C          6.975928   -0.394278   -0.203574
 C          1.520533   -3.198024   -0.857019
 H          3.074422   -2.070211   -1.964907
 C          0.745204   -3.030604    0.260697
 H          7.481609    1.708798   -0.031832
 C          6.336724    5.901255    0.754553
 H          4.809420    4.761876    1.889633
 C          7.079486    5.747376   -0.386485
 C          8.246499   -1.035865   -0.233549
 C         -0.289710   -3.957449    0.824993
 C          8.098134    6.680458   -0.970170
 C          8.533280   -2.397279   -0.340097
 S          9.744965   -0.117004   -0.119211
 H         -0.047319   -4.267108    1.848538
 H         -0.353003   -4.857876    0.206505
 H         -1.283131   -3.493173    0.849975
 H          7.814909    7.018531   -1.974131
 H          8.195605    7.564140   -0.332316
 H          9.085310    6.209703   -1.049236
 C          9.898932   -2.699217   -0.345969
 H          7.759291   -3.152466   -0.425738
 C         10.727526   -1.579170   -0.238968
 H         10.285547   -3.702412   -0.451541
 C         12.152379   -1.500157   -0.246222
 C         13.143383   -2.478597   -0.036304
 S         12.944977    0.036945   -0.578975
 C         14.475585   -1.967251   -0.136900
 C         13.181701   -3.857000    0.336141
 C         14.569130   -0.611432   -0.399872
 S         15.694953   -3.192450    0.167752
 C         14.431894   -4.387334    0.512993
 F         12.064716   -4.590309    0.479333
 C         15.742093    0.210926   -0.541016
 C         14.882826   -5.775479    0.752175
 C         17.037280   -0.190535   -0.820732
 S         15.681601    1.957651   -0.333850
 O         15.930624   -6.175982    0.279027
 O         14.127717   -6.620432    1.484143
 C         17.963084    0.886356   -0.872497
 H         17.309971   -1.220215   -1.022030
 C         17.382081    2.104619   -0.640151
 C         13.228395   -6.180591    2.519908
 H         19.018794    0.760194   -1.085242
 H         17.846947    3.081154   -0.627155
 H         13.420203   -5.143021    2.802312
 H         12.196635   -6.293177    2.185595
 H         13.414649   -6.832896    3.375269
 H          6.423737    6.771989    1.396514
 H          1.452676   -4.076864   -1.490182
 H         -6.089646   -6.552806   -2.032641
 H        -16.613979   -1.528719    1.789642
