       134
S0: Total Energy = -10036.2245667
 C          4.031311    4.186611   -0.305544
 C          4.928647    5.218590   -0.095197
 C          6.305505    4.827380   -0.092205
 C          6.499802    3.462557   -0.321677
 S          4.938062    2.702375   -0.557828
 C          7.133920    5.950652    0.233264
 C          6.468130    7.118952    0.466402
 S          4.716213    6.929176    0.242303
 F          8.471925    5.853173    0.274577
 C          6.962845    8.500670    0.678411
 O          6.353151    9.449696    0.223435
 O          8.100428    8.718542    1.365588
 C          8.622728    7.803232    2.348517
 H          7.860083    7.095136    2.680041
 H          9.479039    7.267739    1.937738
 H          8.939649    8.421339    3.190297
 C         10.076736   -0.468237   -0.309548
 C          9.540110   -1.698015   -0.033279
 C         10.497120   -2.765262   -0.013431
 C         11.817791   -2.296809   -0.279420
 S         11.828990   -0.557301   -0.561098
 C         13.135304   -6.770316    0.322632
 C         13.690455   -5.562627    0.050148
 C         12.728113   -4.489404    0.028380
 C         11.408401   -4.959618    0.292733
 S         11.405966   -6.701034    0.571307
 C         10.275897   -4.134237    0.274527
 C         12.947942   -3.120558   -0.261289
 H          8.484954   -1.848420    0.160650
 H         14.746809   -5.423969   -0.142378
 C          8.935571   -4.681003    0.543218
 C          8.525366   -5.425002    1.621112
 C          7.165710   -5.823359    1.507928
 C          6.510931   -5.420069    0.378921
 S          7.617880   -4.501257   -0.611785
 H          9.149369   -5.665929    2.473235
 C         14.288488   -2.572148   -0.531244
 C         14.703024   -1.846280   -1.619563
 C         16.061015   -1.441728   -1.504638
 C         16.709698   -1.823545   -0.364832
 S         15.598683   -2.728535    0.634489
 H         14.083751   -1.622714   -2.479933
 C          5.088928   -5.684947   -0.006774
 H          5.017835   -6.236731   -0.951344
 H          4.611686   -6.284826    0.773181
 H          4.516996   -4.756413   -0.119777
 C         18.128738   -1.548709    0.025090
 H         18.192825   -0.979815    0.959957
 H         18.609983   -0.962061   -0.762438
 H         18.701946   -2.473632    0.158563
 H         13.639874   -7.725102    0.395200
 C          9.403764    0.805029   -0.405365
 C          9.929003    2.035152   -0.758424
 S          7.693932    0.959571   -0.041594
 C          8.984971    3.084485   -0.760094
 H         10.970267    2.175713   -1.027950
 C          7.709294    2.683797   -0.399978
 H          9.223937    4.101072   -1.040798
 C          2.593179    4.225711   -0.351384
 C          1.776922    5.325106   -0.556222
 S          1.621666    2.780884   -0.111720
 C          0.398081    5.017797   -0.529072
 H          2.157287    6.319749   -0.758130
 C          0.124740    3.680417   -0.310592
 H         -0.376857    5.761492   -0.680461
 F         16.666640   -0.728741   -2.477854
 F          6.563885   -6.551000    2.472302
 C         -1.156166    3.020724   -0.235985
 C         -1.420936    1.691214   -0.032018
 S         -2.644694    3.965189   -0.417611
 C         -2.815416    1.366715   -0.014204
 H         -0.641896    0.953100    0.115665
 C         -3.631380    2.521176   -0.203906
 C         -3.417397    0.102665    0.210807
 C         -5.029063    2.494394   -0.169081
 C         -4.815226    0.075630    0.245258
 C         -2.630190   -1.127346    0.399949
 C         -5.631088    1.230015    0.055320
 C         -5.816361    3.724332   -0.358002
 S         -5.801700   -1.368760    0.457058
 C         -2.697125   -2.024148    1.436665
 S         -1.476669   -1.678123   -0.811603
 C         -7.025513    0.905819    0.074868
 C         -5.748070    4.622089   -1.393869
 S         -6.972609    4.273239    0.851693
 C         -7.290303   -0.423643    0.279260
 C         -1.817334   -3.124417    1.247294
 H         -3.324840   -1.904761    2.311518
 C         -1.076637   -3.113766    0.099587
 H         -7.805021    1.644737   -0.066062
 C         -6.629153    5.721426   -1.205331
 H         -5.118615    4.504035   -2.267658
 C         -7.372118    5.709258   -0.059065
 C         -8.571639   -1.082243    0.355706
 F         -1.721049   -4.112742    2.161415
 C         -0.074822   -4.126592   -0.360465
 F         -6.724526    6.710231   -2.118994
 C         -8.375541    6.720821    0.400318
 C         -8.847508   -2.408251    0.637337
 S        -10.063235   -0.203337    0.065506
 H         -0.357031   -4.573663   -1.320767
 H         -0.009182   -4.928150    0.380571
 H          0.923409   -3.688739   -0.477853
 H         -8.092603    7.170674    1.359109
 H         -8.444291    7.520621   -0.342308
 H         -9.372512    6.281095    0.520323
 C        -10.224315   -2.720443    0.644191
 H         -8.074576   -3.138167    0.853012
 C        -11.039951   -1.638558    0.359413
 H        -10.611880   -3.703284    0.875126
 C        -12.479004   -1.571711    0.308822
 C        -13.429457   -2.557219    0.033102
 S        -13.311052   -0.066952    0.651035
 C        -14.779193   -2.080148    0.084347
 C        -13.410991   -3.929860   -0.378016
 C        -14.910763   -0.737279    0.377335
 S        -15.950329   -3.330085   -0.311929
 C        -14.634368   -4.481722   -0.626997
 F        -12.264578   -4.621459   -0.478717
 C        -16.111169    0.058645    0.489442
 C        -15.032734   -5.879453   -0.920374
 C        -17.391598   -0.374872    0.773876
 S        -16.102367    1.796800    0.226438
 O        -16.070444   -6.331793   -0.475275
 O        -14.241900   -6.668550   -1.673235
 C        -18.352914    0.674463    0.786868
 H        -17.630544   -1.407098    1.004270
 C        -17.808723    1.901417    0.520314
 C        -13.305390   -6.159813   -2.642989
 H        -19.405445    0.521582    0.997928
 H        -18.302708    2.862621    0.475841
 H        -13.528067   -5.123848   -2.907798
 H        -12.289819   -6.237720   -2.253991
 H        -13.415916   -6.795077   -3.523542
       134
T1: Total Energy = -10036.1848981
 C         -4.081305    4.268617    0.201521
 C         -5.017832    5.326859    0.292727
 C         -6.375735    4.948059    0.312214
 C         -6.573992    3.517660    0.240035
 S         -4.970959    2.730312    0.147449
 C         -7.197905    6.098915    0.410316
 C         -6.533036    7.308907    0.435608
 S         -4.795238    7.047026    0.414300
 F         -8.536585    6.034278    0.511103
 C         -6.985065    8.694524    0.654269
 O         -6.255061    9.507735    1.194480
 O         -8.222922    9.077213    0.273079
 C         -8.919452    8.490037   -0.841947
 H         -8.249405    7.889540   -1.461474
 H         -9.745602    7.876759   -0.480670
 H         -9.307290    9.325484   -1.428330
 C         -9.962983   -0.512595    0.082739
 C         -9.352552   -1.750832   -0.004730
 C        -10.258432   -2.851249   -0.040416
 C        -11.621820   -2.422641    0.005281
 S        -11.733807   -0.666287    0.120671
 C        -12.694182   -6.989831   -0.324429
 C        -13.319510   -5.786978   -0.246573
 C        -12.405012   -4.675716   -0.206071
 C        -11.047118   -5.107042   -0.249244
 S        -10.951180   -6.865579   -0.351492
 C         -9.955002   -4.232931   -0.163133
 C        -12.707733   -3.294892   -0.081463
 H         -8.277183   -1.866406   -0.061623
 H        -14.396059   -5.678673   -0.207176
 C         -8.574537   -4.739334   -0.197745
 C         -8.005428   -5.583410   -1.119055
 C         -6.660027   -5.902080   -0.791652
 C         -6.168503   -5.340881    0.352875
 S         -7.420894   -4.365433    1.080958
 H         -8.506141   -5.949060   -2.007316
 C        -14.091063   -2.788979   -0.043510
 C        -14.676155   -1.993470    0.909194
 C        -16.018624   -1.663699    0.577181
 C        -16.490971   -2.171047   -0.599707
 S        -15.222549   -3.105374   -1.355109
 H        -14.188874   -1.668598    1.820637
 C         -4.799673   -5.492751    0.939436
 H         -4.832192   -5.924171    1.946673
 H         -4.209340   -6.158788    0.303950
 H         -4.275436   -4.532015    1.005736
 C        -17.851487   -1.996079   -1.199421
 H        -17.806397   -1.506741   -2.179383
 H        -18.458059   -1.372428   -0.536774
 H        -18.366663   -2.954922   -1.329829
 H        -13.153641   -7.968804   -0.367990
 C         -9.352695    0.768255    0.139870
 C         -9.968719    2.030190    0.206952
 S         -7.596346    0.955756    0.137009
 C         -9.094871    3.101695    0.251628
 H        -11.047439    2.146385    0.220366
 C         -7.720765    2.731662    0.220248
 H         -9.415650    4.130501    0.302337
 C         -2.681325    4.311540    0.164975
 C         -1.827674    5.435964    0.176607
 S         -1.714592    2.830433    0.098628
 C         -0.474630    5.115625    0.135246
 H         -2.188908    6.456167    0.206840
 C         -0.207021    3.742521    0.086953
 H          0.311826    5.862589    0.135352
 F        -16.776504   -0.899180    1.391788
 F         -5.916586   -6.707265   -1.579441
 C          1.058562    3.087602    0.037204
 C          1.318384    1.734232   -0.046160
 S          2.559275    4.035033    0.083796
 C          2.704032    1.404379   -0.072489
 H          0.531986    0.991749   -0.105788
 C          3.531427    2.568996   -0.021787
 C          3.296465    0.117630   -0.191030
 C          4.924733    2.529793   -0.096845
 C          4.691297    0.080046   -0.264727
 C          2.499778   -1.118677   -0.234183
 C          5.516356    1.243748   -0.213100
 C          5.723032    3.766393   -0.054746
 S          5.668482   -1.383313   -0.359710
 C          2.546776   -2.123058   -1.168879
 S          1.361131   -1.527839    1.046121
 C          6.906152    0.913220   -0.239083
 C          5.696405    4.759181    0.892431
 S          6.835621    4.188751   -1.352917
 C          7.163141   -0.433098   -0.317818
 C          1.664401   -3.190177   -0.849359
 H          3.160494   -2.102588   -2.061366
 C          0.940875   -3.050476    0.301134
 H          7.690963    1.658473   -0.192622
 C          6.573719    5.829318    0.567342
 H          5.099715    4.729376    1.796197
 C          7.273563    5.702347   -0.598947
 C          8.439724   -1.100025   -0.359953
 F          1.549385   -4.270560   -1.649574
 C         -0.059361   -4.000687    0.882041
 F          6.706231    6.900163    1.377891
 C          8.262523    6.658345   -1.189830
 C          8.707025   -2.449489   -0.513918
 S          9.939502   -0.202635   -0.191899
 H          0.233031   -4.340696    1.882308
 H         -0.137924   -4.878538    0.234675
 H         -1.054049   -3.546541    0.962344
 H          7.944906    7.017143   -2.175780
 H          8.362462    7.524563   -0.529851
 H          9.252539    6.201897   -1.304776
 C         10.081829   -2.766392   -0.518626
 H          7.927952   -3.193852   -0.639153
 C         10.906185   -1.664421   -0.360379
 H         10.462497   -3.768959   -0.657866
 C         12.345549   -1.599687   -0.341926
 C         13.297794   -2.557076    0.016226
 S         13.176176   -0.138606   -0.841877
 C         14.647424   -2.091619   -0.098949
 C         13.282316   -3.881631    0.562698
 C         14.777716   -0.784334   -0.524260
 S         15.821507   -3.298344    0.406598
 C         14.507896   -4.408696    0.851808
 F         12.136345   -4.556802    0.745716
 C         15.978059   -0.007017   -0.728205
 C         14.908191   -5.770016    1.282321
 C         17.252793   -0.469869   -0.991448
 S         15.977552    1.747855   -0.624908
 O         15.941528   -6.266569    0.875914
 O         14.124464   -6.477537    2.118854
 C         18.216306    0.570123   -1.114989
 H         17.485308   -1.519789   -1.130376
 C         17.679233    1.818420   -0.953321
 C         13.195513   -5.873453    3.039894
 H         19.265038    0.394678   -1.327358
 H         18.176316    2.777711   -1.004254
 H         13.413630   -4.813876    3.190338
 H         12.176448   -5.998286    2.672844
 H         13.319758   -6.410629    3.981805
       134
S1: Total Energy = -10036.1625570
 C         -4.103999    4.323617    0.157476
 C         -5.037146    5.368110    0.185540
 C         -6.403523    4.969098    0.194862
 C         -6.582084    3.558867    0.190544
 S         -4.987768    2.789790    0.164735
 C         -7.241520    6.122704    0.181599
 C         -6.592295    7.332709    0.149933
 S         -4.840547    7.102058    0.205165
 F         -8.582518    6.042408    0.226747
 C         -7.073021    8.722073    0.258355
 O         -6.380260    9.580613    0.776656
 O         -8.298294    9.058662   -0.200457
 C         -8.935919    8.389823   -1.304639
 H         -8.232546    7.755356   -1.848557
 H         -9.773634    7.793507   -0.941556
 H         -9.301624    9.179048   -1.964760
 C         -9.926476   -0.535725    0.117380
 C         -9.302383   -1.755640   -0.057489
 C        -10.185226   -2.873034   -0.062706
 C        -11.550573   -2.475902    0.098009
 S        -11.684838   -0.727170    0.281400
 C        -12.559782   -7.052280   -0.308184
 C        -13.198733   -5.864770   -0.144167
 C        -12.304689   -4.737265   -0.134631
 C        -10.945716   -5.138052   -0.292293
 S        -10.826465   -6.890984   -0.459537
 C         -9.865801   -4.245261   -0.255226
 C        -12.623016   -3.367108    0.060237
 H         -8.232442   -1.845624   -0.199554
 H        -14.271107   -5.780015   -0.021225
 C         -8.483858   -4.720527   -0.407830
 C         -7.973645   -5.542716   -1.382869
 C         -6.600183   -5.835861   -1.170375
 C         -6.027919   -5.276403   -0.062806
 S         -7.235891   -4.336120    0.777474
 H         -8.536638   -5.907680   -2.233268
 C        -14.008708   -2.892654    0.217967
 C        -14.535078   -2.138902    1.236712
 C        -15.905215   -1.829188    1.017950
 C        -16.456087   -2.311636   -0.135039
 S        -15.230850   -3.194513   -1.013586
 H        -13.986108   -1.831003    2.118502
 C         -4.612760   -5.404924    0.407639
 H         -4.552729   -5.860346    1.403054
 H         -4.059350   -6.039967   -0.289784
 H         -4.108974   -4.432135    0.455894
 C        -17.861736   -2.149396   -0.623948
 H        -17.901854   -1.627077   -1.586960
 H        -18.429191   -1.562511    0.103740
 H        -18.364794   -3.115469   -0.748337
 H        -13.003606   -8.038482   -0.350565
 C         -9.337815    0.761328    0.172886
 C         -9.963947    2.000404    0.325445
 S         -7.596254    0.985114    0.043860
 C         -9.094541    3.091364    0.343359
 H        -11.039562    2.100965    0.426159
 C         -7.740057    2.745911    0.202960
 H         -9.426175    4.110751    0.469017
 C         -2.692724    4.367496    0.136694
 C         -1.847317    5.492494    0.149566
 S         -1.726545    2.891152    0.093256
 C         -0.491515    5.179111    0.125252
 H         -2.214730    6.510746    0.175900
 C         -0.215201    3.805135    0.091173
 H          0.291282    5.930063    0.129378
 F        -16.613793   -1.106592    1.911458
 F         -5.906913   -6.615567   -2.026510
 C          1.041476    3.155005    0.061756
 C          1.301537    1.789092   -0.012152
 S          2.548046    4.090120    0.123227
 C          2.671417    1.453267   -0.013956
 H          0.509260    1.054516   -0.086685
 C          3.513635    2.615277    0.039463
 C          3.260155    0.152161   -0.118958
 C          4.900510    2.566277   -0.023053
 C          4.649616    0.104988   -0.180318
 C          2.452878   -1.074062   -0.162079
 C          5.488626    1.265871   -0.124596
 C          5.710770    3.792740    0.017707
 S          5.619050   -1.367323   -0.256404
 C          2.532161   -2.107110   -1.064422
 S          1.255113   -1.439916    1.079291
 C          6.862210    0.931114   -0.121379
 C          5.660425    4.809681    0.938896
 S          6.873436    4.173907   -1.250515
 C          7.121526   -0.429589   -0.191685
 C          1.630163   -3.158787   -0.752642
 H          3.180745   -2.115633   -1.932031
 C          0.858398   -2.981167    0.361224
 H          7.651911    1.669429   -0.053763
 C          6.557899    5.863757    0.618940
 H          5.034099    4.806675    1.822822
 C          7.297105    5.701949   -0.518744
 C          8.383882   -1.086668   -0.209915
 F          1.541157   -4.260900   -1.525519
 C         -0.173798   -3.907720    0.923692
 F          6.672487    6.952671    1.407215
 C          8.314650    6.634907   -1.097526
 C          8.654113   -2.453011   -0.300278
 S          9.892721   -0.184893   -0.099909
 H          0.064529   -4.210412    1.949888
 H         -0.221193   -4.808916    0.306092
 H         -1.169939   -3.449455    0.934868
 H          8.033931    6.973054   -2.101779
 H          8.400557    7.515498   -0.454875
 H          9.303368    6.166823   -1.168136
 C         10.015569   -2.771462   -0.297372
 H          7.871391   -3.199637   -0.380849
 C         10.857552   -1.660167   -0.199411
 H         10.390167   -3.780386   -0.390268
 C         12.282929   -1.598750   -0.201331
 C         13.261339   -2.588141    0.017447
 S         13.095078   -0.072919   -0.538084
 C         14.599569   -2.093362   -0.080249
 C         13.281890   -3.965466    0.396155
 C         14.710135   -0.739506   -0.349668
 S         15.803028   -3.330740    0.235444
 C         14.525159   -4.508904    0.580114
 F         12.156319   -4.685230    0.538542
 C         15.892813    0.068270   -0.490153
 C         14.958944   -5.902291    0.826531
 C         17.184744   -0.350144   -0.761168
 S         15.851302    1.816876   -0.295184
 O         16.000518   -6.317710    0.353130
 O         14.195272   -6.732849    1.564801
 C         18.122818    0.715455   -0.815933
 H         17.446593   -1.384181   -0.954199
 C         17.554386    1.941870   -0.594232
 C         13.297153   -6.275941    2.594427
 H         19.177981    0.576037   -1.022800
 H         18.030580    2.912985   -0.584962
 H         13.500615   -5.239201    2.871615
 H         12.265501   -6.378217    2.256563
 H         13.472391   -6.925583    3.454034
