       176
S0: Total Energy = -14776.2728782
 C        -21.699005   -0.670060   -0.293289
 C        -21.112993    0.522796    0.100037
 C        -19.679120    0.480155    0.186320
 C        -19.203212   -0.817781   -0.176964
 S        -20.516580   -1.932605   -0.598099
 C        -18.765082    1.481814    0.580810
 C        -17.850851   -1.167529   -0.159480
 C        -17.412578    1.133450    0.596646
 C        -16.937086   -0.163343    0.232215
 C        -15.504952   -0.201823    0.310311
 C        -14.916604    0.992515    0.704655
 S        -16.100982    2.251548    1.019059
 C        -19.217297    2.838792    0.956283
 C        -19.617018    3.862111    0.134688
 C        -19.994455    5.044610    0.839549
 C        -19.887815    4.934684    2.200995
 S        -19.310268    3.343896    2.638688
 H        -19.634791    3.770935   -0.946193
 H        -20.332693    5.952626    0.350491
 C        -17.388843   -2.522618   -0.526348
 C        -16.908690   -3.509284    0.298281
 C        -16.525488   -4.696334   -0.395019
 C        -16.708356   -4.627014   -1.751147
 S        -17.367958   -3.070803   -2.197587
 H        -16.838308   -3.388697    1.374195
 H        -16.123145   -5.576247    0.096485
 C        -20.194521    5.966419    3.245960
 H        -19.311405    6.215069    3.846565
 H        -20.543875    6.884845    2.764390
 H        -20.976600    5.629152    3.936558
 C        -16.416375   -5.674028   -2.784844
 H        -17.320046   -5.974602   -3.328492
 H        -16.001659   -6.562828   -2.299972
 H        -15.687839   -5.324097   -3.525664
 S        -22.332801    1.736974    0.392167
 C        -23.120112   -0.633508   -0.363994
 H        -23.750424   -1.466641   -0.651788
 C        -23.595622    0.601734   -0.016861
 H        -24.627942    0.924302    0.020169
 S        -14.294408   -1.415149    0.001638
 C        -13.506653    0.956973    0.781250
 H        -12.885683    1.786411    1.099697
 C        -13.000245   -0.284570    0.432946
 C        -11.618312   -0.684793    0.378262
 C        -11.033980   -1.951154    0.430098
 S        -10.364024    0.527071    0.212675
 C         -9.600546   -1.911229    0.359726
 C        -11.530727   -3.290137    0.588644
 C         -9.050533   -0.645516    0.262194
 S         -8.895459   -3.524332    0.447702
 C        -10.523019   -4.201508    0.622145
 H        -12.572806   -3.570083    0.676920
 S        -10.765010   -5.955507    0.817252
 C        -10.438914   -6.257193    2.566113
 O        -12.189413   -6.228305    0.564455
 O         -9.720881   -6.640167    0.036300
 H         -9.418833   -5.946153    2.799043
 H        -11.165878   -5.703873    3.162779
 H        -10.553443   -7.333162    2.720866
 C         -7.680709   -0.207019    0.201361
 S         -6.377537   -1.361189   -0.127387
 C         -7.192248    1.077642    0.371458
 C         -5.184452   -0.094913   -0.024960
 C         -5.787184    1.128043    0.237461
 H         -7.819458    1.931987    0.598765
 C         -3.758608   -0.039478   -0.163151
 S         -4.623390    2.439224    0.345651
 C         -3.300331    1.302622    0.020366
 C         -2.836772   -1.067761   -0.464400
 C         -1.958421    1.671226   -0.088310
 C         -1.494360   -0.699174   -0.572596
 C         -3.277823   -2.466031   -0.651359
 C         -1.036248    0.641768   -0.386432
 C         -1.513824    3.068849    0.093222
 S         -0.171690   -1.835966   -0.899151
 C         -3.675565   -3.368158    0.303404
 S         -3.371417   -3.197075   -2.248551
 C          0.390387    0.696580   -0.516628
 C         -1.080133    3.953673   -0.862359
 S         -1.449556    3.818828    1.682995
 C          0.993275   -0.526381   -0.781159
 C         -4.051882   -4.636187   -0.232407
 H         -3.691285   -3.130430    1.361831
 C         -3.946975   -4.713323   -1.596363
 S          1.582372    1.960597   -0.397159
 C         -0.698123    5.222795   -0.333408
 H         -1.041792    3.702348   -1.917087
 C         -0.835651    5.318331    1.026533
 C          2.398949   -0.474679   -0.907198
 H         -4.389716   -5.468925    0.376028
 C         -4.257758   -5.877039   -2.490394
 C          2.888054    0.809468   -0.728480
 H         -0.329247    6.041596   -0.942637
 C         -0.531221    6.489155    1.913399
 H          3.027941   -1.325852   -1.141417
 H         -3.378594   -6.200850   -3.060099
 H         -4.599984   -6.723059   -1.886846
 H         -5.047683   -5.637365   -3.211896
 C          4.261396    1.239763   -0.763870
 H         -1.422996    6.840926    2.445824
 H         -0.148637    7.317354    1.309503
 H          0.226600    6.244040    2.666791
 C          4.814148    2.504718   -0.970881
 S          5.548564    0.079047   -0.506921
 C          6.249452    2.502099   -0.939777
 C          4.282194    3.808872   -1.255411
 C          6.831752    1.266344   -0.720511
 S          6.914039    4.110244   -1.221569
 C          5.267288    4.731393   -1.416451
 H          3.231931    4.057269   -1.340962
 S          4.981546    6.449122   -1.791934
 C          5.211419    6.557464   -3.578259
 O          3.567226    6.730237   -1.495487
 O          6.052044    7.229092   -1.148077
 H          6.222952    6.232511   -3.828603
 H          4.463469    5.933861   -4.070633
 H          5.072062    7.608190   -3.845039
 C          8.213086    0.867820   -0.644604
 S          9.492186    2.080555   -0.466617
 C          8.730820   -0.415899   -0.685342
 C         10.714485    0.838676   -0.453582
 C         10.138892   -0.419050   -0.572667
 H          8.121534   -1.304164   -0.806767
 C         12.143029    0.831775   -0.330699
 S         11.333824   -1.706694   -0.557022
 C         12.632117   -0.510955   -0.374115
 C         13.042138    1.907610   -0.153275
 C         13.983883   -0.834356   -0.242093
 C         14.394068    1.584007   -0.020453
 C         12.568760    3.307230   -0.113492
 C         14.883251    0.241992   -0.066110
 C         14.459497   -2.233237   -0.276959
 S         15.691014    2.779687    0.169572
 C         12.137841    4.090020   -1.155232
 S         12.475497    4.206379    1.395533
 C         16.312527    0.235040    0.056240
 C         14.918144   -3.001446    0.763940
 S         14.530097   -3.147678   -1.777943
 C         16.886247    1.492457    0.183207
 C         11.736710    5.400055   -0.755797
 H         12.115846    3.737585   -2.181073
 C         11.855321    5.628343    0.589976
 S         17.535944   -1.005154    0.066130
 C         15.323909   -4.311835    0.370588
 H         14.957836   -2.637931    1.785386
 C         15.179851   -4.555353   -0.970027
 C         18.294823    1.487808    0.307212
 H         11.371372    6.153068   -1.446652
 C         11.526005    6.875181    1.356126
 C         18.812353    0.205738    0.265028
 H         15.714177   -5.052673    1.060895
 C         15.503328   -5.808028   -1.729071
 H         18.904397    2.373380    0.445800
 H         12.403180    7.279539    1.875194
 H         11.156443    7.642086    0.668798
 H         10.750161    6.697463    2.110110
 C         20.198989   -0.190824    0.342150
 H         14.615526   -6.233918   -2.211738
 H         15.908625   -6.558200   -1.043515
 H         16.249752   -5.629511   -2.512012
 C         20.774974   -1.398485    0.734515
 S         21.463664    0.934995   -0.109230
 C         22.214353   -1.371628    0.669969
 C         20.284621   -2.659209    1.221028
 C         22.741249   -0.184646    0.244904
 S         22.927040   -2.907191    1.166051
 C         21.297082   -3.526064    1.491273
 H         19.243233   -2.917521    1.366692
 H         23.773583    0.106145    0.111843
 S         21.055499   -5.177035    2.114552
 C         21.362069   -5.037514    3.887344
 O         19.634197   -5.510817    1.923376
 O         22.108654   -6.030431    1.538584
 H         22.379730   -4.677128    4.048218
 H         20.628493   -4.356598    4.322130
 H         21.245388   -6.042754    4.300348
       176
T1: Total Energy = -14776.2302117
 C        -21.667707   -0.832323   -0.811630
 C        -21.111427    0.398859   -0.501791
 C        -19.682656    0.383445   -0.348298
 C        -19.178818   -0.935655   -0.570604
 S        -20.460965   -2.101336   -0.947666
 C        -18.796427    1.428898   -0.006900
 C        -17.825724   -1.264587   -0.460765
 C        -17.442973    1.101219    0.100922
 C        -16.939966   -0.217315   -0.120945
 C        -15.513183   -0.230747    0.026052
 C        -14.953186    1.002412    0.333846
 S        -16.161393    2.270225    0.475706
 C        -19.277778    2.808087    0.222906
 C        -19.657574    3.744583   -0.704840
 C        -20.075645    4.981454   -0.127849
 C        -20.020204    4.999990    1.240946
 S        -19.441493    3.465539    1.846264
 H        -19.632549    3.553422   -1.772437
 H        -20.405434    5.834865   -0.711767
 C        -17.334883   -2.640589   -0.684706
 C        -16.891661   -3.547847    0.245025
 C        -16.462653   -4.784485   -0.323699
 C        -16.573363   -4.832413   -1.688555
 S        -17.220595   -3.327837   -2.299775
 H        -16.879343   -3.335594    1.308937
 H        -16.080337   -5.614687    0.261378
 C        -20.378707    6.119551    2.172983
 H        -19.522606    6.434968    2.781274
 H        -20.718277    6.984609    1.595182
 H        -21.183857    5.836623    2.861502
 C        -16.218827   -5.959521   -2.612719
 H        -17.090968   -6.318810   -3.172024
 H        -15.819423   -6.797395   -2.033532
 H        -15.457954   -5.663327   -3.344402
 S        -22.354892    1.617625   -0.374548
 C        -23.084372   -0.821458   -0.948632
 H        -23.692941   -1.685434   -1.188256
 C        -23.586892    0.433323   -0.735486
 H        -24.622852    0.743876   -0.773455
 S        -14.280688   -1.453515   -0.109514
 C        -13.548742    0.991168    0.479171
 H        -12.950199    1.854294    0.747182
 C        -13.016411   -0.272131    0.274069
 C        -11.631920   -0.659142    0.324332
 C        -11.041606   -1.909931    0.519153
 S        -10.378654    0.548302    0.116430
 C         -9.607879   -1.861353    0.517403
 C        -11.537901   -3.234712    0.768750
 C         -9.059720   -0.602223    0.330768
 S         -8.898831   -3.452073    0.783313
 C        -10.527532   -4.129031    0.933851
 H        -12.581556   -3.516353    0.828098
 S        -10.763204   -5.859896    1.282226
 C        -10.598923   -5.977606    3.075283
 O        -12.153226   -6.191077    0.928565
 O         -9.639517   -6.591983    0.673759
 H         -9.611831   -5.615263    3.368172
 H        -11.389957   -5.389222    3.543086
 H        -10.706485   -7.035709    3.327241
 C         -7.694597   -0.159563    0.288077
 S         -6.364138   -1.331398    0.254860
 C         -7.223118    1.145856    0.263502
 C         -5.187215   -0.045541    0.207330
 C         -5.816576    1.197240    0.215113
 H         -7.868494    2.016389    0.289948
 C         -3.762851    0.008966    0.146404
 S         -4.669005    2.525157    0.160550
 C         -3.321708    1.370158    0.116889
 C         -2.813364   -1.045732    0.086966
 C         -1.980830    1.736272    0.021349
 C         -1.475317   -0.682738   -0.005329
 C         -3.237482   -2.461368    0.124060
 C         -1.030208    0.681901   -0.035984
 C         -1.557383    3.150764   -0.022370
 S         -0.127303   -1.841200   -0.047673
 C         -3.675469   -3.191854    1.200258
 S         -3.250734   -3.456275   -1.326380
 C          0.385502    0.739132   -0.095249
 C         -1.103542    3.869550   -1.100230
 S         -1.555012    4.159644    1.419186
 C          1.026348   -0.514208   -0.099582
 C         -4.018336   -4.538029    0.873324
 H         -3.743359   -2.776558    2.200244
 C         -3.848058   -4.846233   -0.450876
 S          1.554524    2.038728   -0.139539
 C         -0.756213    5.216349   -0.781648
 H         -1.027123    3.444543   -2.095485
 C         -0.937882    5.537382    0.538159
 C          2.413257   -0.469487   -0.130777
 H         -4.379431   -5.259032    1.599616
 C         -4.108346   -6.150511   -1.144641
 C          2.907546    0.863956   -0.150239
 H         -0.383268    5.929094   -1.510127
 C         -0.669764    6.844284    1.223839
 H          3.061423   -1.337686   -0.135007
 H         -3.200746   -6.554690   -1.608597
 H         -4.474125   -6.885153   -0.420960
 H         -4.864049   -6.049696   -1.932472
 C          4.234513    1.271450   -0.181744
 H         -1.571245    7.249684    1.698348
 H         -0.312625    7.576003    0.493051
 H          0.097386    6.746133    2.000748
 C          4.814781    2.591478   -0.205540
 S          5.544764    0.054848   -0.206705
 C          6.224635    2.573443   -0.242195
 C          4.289062    3.909904   -0.198348
 C          6.830901    1.294196   -0.245939
 S          6.901315    4.181040   -0.255523
 C          5.283916    4.861173   -0.233260
 H          3.241107    4.177766   -0.158933
 S          5.032651    6.611975   -0.280774
 C          4.957277    7.022264   -2.037918
 O          3.705781    6.884191    0.297425
 O          6.240855    7.246870    0.275827
 H          5.898389    6.737826   -2.511968
 H          4.114559    6.495456   -2.488765
 H          4.811168    8.103804   -2.099755
 C          8.180404    0.914718   -0.277195
 S          9.494309    2.121738   -0.313539
 C          8.698134   -0.395920   -0.292019
 C         10.696949    0.856378   -0.336075
 C         10.093004   -0.408259   -0.323989
 H          8.072067   -1.280100   -0.277147
 C         12.121310    0.833729   -0.341718
 S         11.275598   -1.708133   -0.338161
 C         12.594941   -0.519422   -0.346071
 C         13.047009    1.907724   -0.310614
 C         13.945883   -0.854003   -0.315525
 C         14.400281    1.570786   -0.275656
 C         12.592778    3.312940   -0.318536
 C         14.870302    0.219883   -0.284673
 C         14.404428   -2.258960   -0.309779
 S         15.723429    2.753831   -0.275017
 C         12.037773    4.021338   -1.355441
 S         12.700848    4.326852    1.115099
 C         16.300164    0.195857   -0.291446
 C         14.943823   -2.973164    0.730996
 S         14.340162   -3.256732   -1.756854
 C         16.899572    1.450438   -0.292200
 C         11.701919    5.364764   -1.011940
 H         11.883862    3.592936   -2.340190
 C         11.993767    5.693378    0.285980
 S         17.504675   -1.063038   -0.320055
 C         15.304537   -4.308379    0.379873
 H         15.073241   -2.553464    1.723062
 C         15.045235   -4.624832   -0.927870
 C         18.311415    1.428084   -0.297345
 H         11.258088    6.069349   -1.707805
 C         11.774023    7.000648    0.987942
 C         18.808415    0.135470   -0.311597
 H         15.746285   -5.014394    1.075555
 C         15.293191   -5.922273   -1.638606
 H         18.941475    2.309687   -0.269067
 H         12.712035    7.423648    1.366672
 H         11.334140    7.721780    0.292517
 H         11.091895    6.896263    1.839832
 C         20.190073   -0.278665   -0.338378
 H         14.364233   -6.363121   -2.019602
 H         15.749205   -6.637701   -0.947803
 H         15.971983   -5.797613   -2.490456
 C         20.781360   -1.488490    0.027420
 S         21.429126    0.822854   -0.908810
 C         22.210816   -1.481785   -0.153218
 C         20.317567   -2.735544    0.571213
 C         22.716131   -0.309161   -0.640329
 S         22.943566   -3.018174    0.308833
 C         21.338770   -3.611127    0.772816
 H         19.288993   -2.980331    0.804444
 H         23.737721   -0.035410   -0.862664
 S         21.129910   -5.249823    1.438919
 C         21.578580   -5.085779    3.178840
 O         19.694500   -5.569461    1.365991
 O         22.125293   -6.123236    0.794457
 H         22.608825   -4.732467    3.250749
 H         20.888314   -4.390516    3.659387
 H         21.487004   -6.083079    3.616759
       176
S1: Total Energy = -14776.2105870
 C        -21.714052   -0.799915   -0.045985
 C        -21.121801    0.451829    0.048518
 C        -19.688109    0.429117    0.081899
 C        -19.214703   -0.917829   -0.002803
 S        -20.534111   -2.098456   -0.111359
 C        -18.765758    1.495799    0.203020
 C        -17.861354   -1.255772    0.036884
 C        -17.413289    1.160638    0.238853
 C        -16.938785   -0.187513    0.156115
 C        -15.512206   -0.209826    0.179321
 C        -14.911345    1.047382    0.263470
 S        -16.094044    2.345437    0.337329
 C        -19.216322    2.901954    0.282297
 C        -19.667613    3.711070   -0.729550
 C        -20.027135    5.021788   -0.293519
 C        -19.855555    5.224002    1.050650
 S        -19.237347    3.775408    1.808953
 H        -19.734628    3.376960   -1.759511
 H        -20.399657    5.794313   -0.958683
 C        -17.400193   -2.656890   -0.042335
 C        -16.880541   -3.439878    0.958391
 C        -16.504212   -4.745788    0.523392
 C        -16.729869   -4.971085   -0.809403
 S        -17.425294   -3.552254   -1.556605
 H        -16.776393   -3.089480    1.979891
 H        -16.078130   -5.498463    1.178891
 C        -20.126355    6.465293    1.848356
 H        -19.219418    6.845027    2.333794
 H        -20.509242    7.250103    1.188857
 H        -20.871074    6.291874    2.634268
 C        -16.454995   -6.213598   -1.603393
 H        -17.373142   -6.640590   -2.024450
 H        -15.994639   -6.967454   -0.957928
 H        -15.768339   -6.021491   -2.435921
 S        -22.340080    1.701284    0.115546
 C        -23.136061   -0.778756   -0.063584
 H        -23.770649   -1.654331   -0.133280
 C        -23.607913    0.503523    0.021286
 H        -24.640782    0.826397    0.029261
 S        -14.308185   -1.466178    0.098369
 C        -13.508882    1.030561    0.263169
 H        -12.884739    1.914433    0.328141
 C        -12.996750   -0.267226    0.174625
 C        -11.630717   -0.659028    0.142610
 C        -11.035146   -1.936944    0.126476
 S        -10.366766    0.570919    0.115300
 C         -9.609690   -1.891123    0.094345
 C        -11.529526   -3.281942    0.146291
 C         -9.047176   -0.611674    0.085313
 S         -8.900244   -3.494625    0.059768
 C        -10.517593   -4.196326    0.127195
 H        -12.570496   -3.577601    0.169188
 S        -10.744630   -5.959623    0.165915
 C        -10.534355   -6.400184    1.903402
 O        -12.143933   -6.227069   -0.205103
 O         -9.637109   -6.567412   -0.591354
 H         -9.536075   -6.102465    2.229521
 H        -11.306270   -5.901465    2.491667
 H        -10.646394   -7.485761    1.963717
 C         -7.696897   -0.184206    0.058973
 S         -6.360078   -1.359027    0.046757
 C         -7.215198    1.132249    0.046886
 C         -5.182504   -0.069203    0.013686
 C         -5.821167    1.182877    0.020454
 H         -7.862269    2.001744    0.052890
 C         -3.770245   -0.014540   -0.035988
 S         -4.671850    2.509445   -0.023121
 C         -3.323587    1.351773   -0.061918
 C         -2.814323   -1.072943   -0.090146
 C         -1.988806    1.717213   -0.150013
 C         -1.479425   -0.708420   -0.176351
 C         -3.239273   -2.486959   -0.052301
 C         -1.032784    0.659147   -0.202951
 C         -1.560775    3.130188   -0.188878
 S         -0.126886   -1.862714   -0.208178
 C         -3.727667   -3.201418    1.013535
 S         -3.183708   -3.505093   -1.486048
 C          0.376552    0.718010   -0.249626
 C         -1.099616    3.849727   -1.263267
 S         -1.549081    4.132546    1.257478
 C          1.020901   -0.533038   -0.249074
 C         -4.052871   -4.552967    0.692184
 H         -3.840772   -2.771622    2.003218
 C         -3.819764   -4.881872   -0.617577
 S          1.547959    2.013004   -0.281116
 C         -0.740079    5.191709   -0.938502
 H         -1.025304    3.428237   -2.260211
 C         -0.918934    5.508426    0.382840
 C          2.412077   -0.478481   -0.267365
 H         -4.445569   -5.263421    1.412456
 C         -4.045781   -6.197392   -1.302034
 C          2.894675    0.844191   -0.280845
 H         -0.359899    5.904224   -1.663412
 C         -0.639357    6.810005    1.073978
 H          3.061931   -1.345869   -0.266795
 H         -3.118919   -6.601791   -1.725807
 H         -4.433729   -6.924462   -0.582235
 H         -4.771971   -6.112649   -2.118984
 C          4.238928    1.268795   -0.297649
 H         -1.540561    7.228820    1.537344
 H         -0.260899    7.536723    0.349019
 H          0.116051    6.698741    1.860456
 C          4.801572    2.569460   -0.317007
 S          5.543036    0.071733   -0.299237
 C          6.227227    2.559720   -0.331906
 C          4.271684    3.895282   -0.326341
 C          6.825086    1.297253   -0.322032
 S          6.894916    4.181784   -0.339775
 C          5.258912    4.842767   -0.350373
 H          3.222671    4.161441   -0.308586
 S          4.985026    6.592719   -0.406862
 C          5.024796    7.004755   -2.164526
 O          3.617463    6.840920    0.080831
 O          6.140575    7.246203    0.233102
 H          5.997376    6.726509   -2.574457
 H          4.217604    6.473060   -2.671201
 H          4.877020    8.085524   -2.235116
 C          8.188722    0.907241   -0.326665
 S          9.492751    2.117320   -0.347130
 C          8.705447   -0.392961   -0.321105
 C         10.704862    0.861755   -0.335869
 C         10.105246   -0.402407   -0.324834
 H          8.083876   -1.280703   -0.310670
 C         12.127883    0.844584   -0.310560
 S         11.289912   -1.699127   -0.300085
 C         12.606542   -0.507727   -0.289186
 C         13.051946    1.921883   -0.270689
 C         13.956231   -0.838346   -0.220976
 C         14.403647    1.589009   -0.199410
 C         12.594087    3.325112   -0.305747
 C         14.878459    0.238692   -0.179342
 C         14.418196   -2.241692   -0.188283
 S         15.724879    2.775702   -0.182806
 C         12.048339    4.016068   -1.359314
 S         12.680779    4.361234    1.113923
 C         16.305369    0.218130   -0.149234
 C         14.933833   -2.943342    0.872894
 S         14.394414   -3.254411   -1.626287
 C         16.904339    1.475333   -0.152743
 C         11.703766    5.363240   -1.040174
 H         11.907589    3.572523   -2.339319
 C         11.979108    5.712586    0.255994
 S         17.512634   -1.038849   -0.125653
 C         15.308453   -4.280567    0.544552
 H         15.036609   -2.513086    1.863553
 C         15.083676   -4.611217   -0.766089
 C         18.313333    1.455545   -0.121771
 H         11.266063    6.055651   -1.752015
 C         11.747091    7.029653    0.935333
 C         18.815275    0.162307   -0.102078
 H         15.735235   -4.977872    1.258158
 C         15.354345   -5.914773   -1.457080
 H         18.940486    2.339253   -0.093114
 H         12.679510    7.462179    1.317201
 H         11.311769    7.738343    0.224394
 H         11.056555    6.935806    1.781668
 C         20.195176   -0.247009   -0.080656
 H         14.436200   -6.365711   -1.852327
 H         15.800541   -6.619579   -0.749179
 H         16.049932   -5.795124   -2.295963
 C         20.776081   -1.469074    0.268580
 S         21.456557    0.879483   -0.551235
 C         22.212173   -1.450580    0.154298
 C         20.295486   -2.735776    0.745392
 C         22.734366   -0.259746   -0.266031
 S         22.931783   -2.999408    0.594247
 C         21.311143   -3.615406    0.963325
 H         19.259200   -2.994055    0.923187
 H         23.763975    0.024407   -0.430832
 S         21.080223   -5.274370    1.566920
 C         21.445958   -5.164648    3.330607
 O         19.651319   -5.597264    1.417674
 O         22.108695   -6.124559    0.943440
 H         22.470613   -4.812505    3.462606
 H         20.731724   -4.485938    3.799679
 H         21.336730   -6.175308    3.732243
