        96
S0: Total Energy = -7110.90337478
 C         -9.702626   -0.209645    0.495891
 C        -10.850796   -0.518025    1.193294
 S        -10.069746    1.147004   -0.587938
 C        -11.255968   -1.499819    2.220728
 C        -11.982645    0.289514    0.881854
 C        -11.763633    1.260939   -0.071582
 N        -12.609495   -1.232557    2.474825
 O        -10.618740   -2.380376    2.777060
 C        -13.118918   -0.169443    1.707913
 C        -13.396575   -1.985212    3.436172
 O        -14.269387    0.234224    1.766004
 H        -14.403974   -1.567967    3.435678
 H        -13.432543   -3.041610    3.155088
 H        -12.960029   -1.899876    4.435328
 C        -12.608640    2.265321   -0.665772
 S        -14.316258    2.467062   -0.211134
 C        -12.228701    3.180912   -1.635585
 C        -14.482771    3.783126   -1.338672
 C        -13.288568    4.032950   -2.010435
 H        -11.228765    3.228240   -2.051952
 C        -15.569980    4.637813   -1.706208
 S        -13.477881    5.355486   -3.136520
 C        -15.157051    5.526652   -2.664580
 C        -16.953941    4.566908   -1.125074
 H        -15.756096    6.295198   -3.136318
 H        -17.607398    5.323609   -1.567631
 H        -17.406225    3.582846   -1.300110
 H        -16.935511    4.726492   -0.039822
 C         -8.371618   -0.758845    0.503397
 S         -7.906165   -2.113134    1.557664
 C         -7.306804   -0.329316   -0.276310
 C         -6.281955   -2.071287    0.926683
 C         -6.135339   -1.073137   -0.034259
 H         -7.378458    0.486580   -0.986537
 C         -5.107728   -2.823218    1.212505
 S         -4.507517   -1.049562   -0.653786
 C         -4.050277   -2.385537    0.426922
 C         -5.049449   -3.902345    2.257573
 H         -4.033548   -4.035263    2.638524
 H         -5.701858   -3.652992    3.101767
 H         -5.387751   -4.868260    1.860359
 C         -2.690072   -2.884172    0.394957
 C         -2.236904   -4.178400    0.566866
 S         -1.332889   -1.804980    0.102442
 C         -0.829040   -4.308716    0.481582
 H         -2.902594   -5.018124    0.725944
 C         -0.172100   -3.120270    0.224404
 H         -0.309415   -5.247609    0.629863
 C          1.248414   -2.882328    0.066450
 C          2.203672   -3.720757   -0.491810
 S          1.937657   -1.348459    0.644349
 C          3.488534   -3.110586   -0.442024
 C          1.949985   -5.067671   -1.109530
 C          3.525470   -1.835774    0.119191
 S          5.068900   -3.617384   -0.973992
 H          0.918957   -5.158340   -1.461244
 H          2.618290   -5.229593   -1.962508
 H          2.133180   -5.880829   -0.395060
 C          4.805150   -1.247478    0.129720
 C          5.769015   -2.077209   -0.426564
 H          5.022274   -0.260743    0.522732
 C          7.169634   -1.773836   -0.563988
 S          7.774282   -0.213109    0.026307
 C          8.236506   -2.469928   -1.091918
 C          9.450362   -0.541207   -0.456463
 C          9.488505   -1.793030   -1.033369
 C          8.451190   -3.784591   -1.732037
 C         10.458742    0.454437   -0.204094
 C         10.513157   -2.670133   -1.637004
 N          9.824989   -3.829409   -2.026765
 O          7.661507   -4.681675   -1.981373
 S         12.161430    0.222576   -0.661942
 C         10.257408    1.685998    0.403651
 O         11.711403   -2.501953   -1.800321
 C         10.477189   -4.957369   -2.668972
 C         12.567392    1.792300   -0.023644
 C         11.447175    2.433940    0.499964
 H          9.291159    2.024032    0.760712
 H          9.714595   -5.712686   -2.861137
 H         10.936534   -4.645466   -3.611275
 H         11.252533   -5.370163   -2.017320
 C         13.791452    2.512890    0.083259
 S         11.875433    4.000550    1.131338
 C         13.577968    3.740491    0.691230
 C         15.116420    1.969765   -0.374306
 C         14.547855    4.782413    0.977880
 H         15.946863    2.458624    0.141296
 H         15.177031    0.892776   -0.180563
 H         15.260388    2.113798   -1.453055
 C         15.627368    5.189785    0.220935
 S         14.457454    5.732658    2.457100
 C         16.371563    6.249485    0.814018
 H         15.856194    4.765997   -0.749826
 C         15.857548    6.654667    2.015673
 H         17.245682    6.699549    0.356243
 H         16.215074    7.438309    2.670170
        96
T1: Total Energy = -7110.85581480
 C         -9.624920   -0.329302    0.038924
 C        -10.908451   -0.857443    0.117817
 S         -9.774388    1.443442   -0.069239
 C        -11.511963   -2.197088    0.228449
 C        -11.954703    0.100659    0.097152
 C        -11.549640    1.418359    0.000632
 N        -12.900045   -1.977694    0.269612
 O        -10.998047   -3.304984    0.279439
 C        -13.244447   -0.619530    0.194950
 C        -13.868331   -3.054530    0.377933
 O        -14.387938   -0.191669    0.212694
 H        -14.861274   -2.604081    0.396507
 H        -13.784236   -3.730816   -0.477638
 H        -13.702464   -3.624652    1.296468
 C        -12.266051    2.663204   -0.049590
 S        -14.043306    2.749927   -0.004879
 C        -11.697670    3.927152   -0.139432
 C        -13.981801    4.486892   -0.109698
 C        -12.668456    4.948327   -0.172984
 H        -10.627696    4.097517   -0.178174
 C        -14.980686    5.510200   -0.141807
 S        -12.630459    6.692412   -0.276127
 C        -14.381799    6.740375   -0.230578
 C        -16.462658    5.267853   -0.086471
 H        -14.879220    7.700950   -0.273439
 H        -17.018267    6.208831   -0.124179
 H        -16.792795    4.644061   -0.926393
 H        -16.743221    4.744128    0.835754
 C         -8.333746   -0.920596    0.031564
 S         -8.083155   -2.685527    0.105192
 C         -7.108808   -0.230742   -0.033902
 C         -6.344386   -2.459505    0.044685
 C         -6.016095   -1.086644   -0.025488
 H         -7.043802    0.850161   -0.082139
 C         -5.271661   -3.347135    0.058478
 S         -4.285289   -0.868624   -0.078823
 C         -4.027548   -2.642052   -0.003889
 C         -5.432300   -4.839234    0.136346
 H         -4.933923   -5.254534    1.020130
 H         -6.490304   -5.108348    0.198697
 H         -5.017421   -5.338769   -0.747262
 C         -2.719331   -3.140336   -0.008684
 C         -2.249509   -4.484604    0.016914
 S         -1.321800   -2.042585   -0.052806
 C         -0.879755   -4.617719    0.002679
 H         -2.914168   -5.335905    0.042421
 C         -0.160339   -3.388567   -0.033885
 H         -0.390275   -5.580516    0.020031
 C          1.217991   -3.151223   -0.048448
 C          2.305528   -4.084550   -0.044916
 S          1.811202   -1.458214   -0.070827
 C          3.527344   -3.419879   -0.056692
 C          2.175715   -5.581742   -0.031692
 C          3.468524   -2.006413   -0.071027
 S          5.191816   -3.976902   -0.056237
 H          1.620801   -5.947984   -0.903487
 H          3.162289   -6.052910   -0.048715
 H          1.657625   -5.936028    0.867467
 C          4.703437   -1.376391   -0.079864
 C          5.776168   -2.290517   -0.072327
 H          4.846425   -0.302005   -0.090683
 C          7.154049   -1.955898   -0.072223
 S          7.635052   -0.238660   -0.075560
 C          8.317775   -2.720265   -0.067449
 C          9.375128   -0.602155   -0.067105
 C          9.524589   -1.977044   -0.065175
 C          8.655263   -4.154445   -0.063478
 C         10.313893    0.482899   -0.060914
 C         10.654775   -2.933714   -0.060570
 N         10.063595   -4.202659   -0.059468
 O          7.933650   -5.140846   -0.063359
 S         12.075450    0.226867   -0.065835
 C          9.996460    1.836796   -0.050048
 O         11.860590   -2.739559   -0.058806
 C         10.830784   -5.435635   -0.055302
 C         12.345447    1.948726   -0.051791
 C         11.142240    2.653137   -0.047108
 H          8.978473    2.209279   -0.042160
 H         10.121637   -6.264029   -0.059083
 H         11.469506   -5.490425   -0.941539
 H         11.459998   -5.490717    0.837734
 C         13.522534    2.748375   -0.019785
 S         11.436080    4.370893   -0.033028
 C         13.192255    4.095827   -0.008116
 C         14.912249    2.177576    0.034965
 C         14.084761    5.240153    0.011114
 H         15.619977    2.892569    0.462109
 H         14.929794    1.268718    0.647066
 H         15.275243    1.902817   -0.964004
 C         15.302159    5.398639   -0.619872
 S         13.687999    6.691748    0.925319
 C         15.908607    6.664220   -0.378116
 H         15.729310    4.643279   -1.268836
 C         15.153956    7.472096    0.428390
 H         16.861740    6.964132   -0.799764
 H         15.368650    8.478344    0.762547
        96
S1: Total Energy = -7110.83558157
 C         -9.619840   -0.326589    0.051646
 C        -10.906524   -0.850471    0.149035
 S         -9.766194    1.445586   -0.088994
 C        -11.510934   -2.186561    0.287143
 C        -11.948536    0.106624    0.116186
 C        -11.543079    1.425377   -0.007956
 N        -12.899661   -1.965468    0.330906
 O        -10.998676   -3.294691    0.356189
 C        -13.240354   -0.608873    0.233104
 C        -13.868950   -3.038385    0.462837
 O        -14.382395   -0.176657    0.247735
 H        -14.861259   -2.586215    0.475544
 H        -13.788651   -3.731353   -0.379734
 H        -13.701713   -3.591250    1.391717
 C        -12.256849    2.665822   -0.076376
 S        -14.035192    2.757999   -0.015332
 C        -11.687105    3.929859   -0.197393
 C        -13.970833    4.492899   -0.155638
 C        -12.655716    4.950015   -0.241488
 H        -10.617328    4.097054   -0.250609
 C        -14.966696    5.516867   -0.199160
 S        -12.615553    6.692271   -0.380780
 C        -14.366290    6.744697   -0.318990
 C        -16.448721    5.279703   -0.124976
 H        -14.862618    7.705088   -0.376500
 H        -17.002492    6.221024   -0.177906
 H        -16.787923    4.638773   -0.948205
 H        -16.721947    4.776641    0.810832
 C         -8.330275   -0.919952    0.046848
 S         -8.082919   -2.683650    0.162000
 C         -7.106978   -0.236391   -0.046912
 C         -6.346130   -2.464001    0.080979
 C         -6.014331   -1.098950   -0.027312
 H         -7.038361    0.842588   -0.122977
 C         -5.267732   -3.355552    0.109941
 S         -4.285617   -0.891807   -0.104187
 C         -4.035626   -2.658851    0.016977
 C         -5.430043   -4.844309    0.236801
 H         -4.887674   -5.236968    1.104713
 H         -6.484232   -5.107256    0.359867
 H         -5.061639   -5.369995   -0.652603
 C         -2.715659   -3.167836    0.013577
 C         -2.255523   -4.500487    0.027853
 S         -1.323229   -2.076243   -0.018226
 C         -0.873100   -4.634763    0.013316
 H         -2.918810   -5.353129    0.040138
 C         -0.165323   -3.415245   -0.013380
 H         -0.385570   -5.598609    0.025367
 C          1.226534   -3.169115   -0.028147
 C          2.304224   -4.093250   -0.061639
 S          1.809852   -1.478054   -0.001680
 C          3.531944   -3.424833   -0.062487
 C          2.178181   -5.590614   -0.099497
 C          3.467785   -2.015843   -0.034284
 S          5.195402   -3.977000   -0.094722
 H          1.594955   -5.925243   -0.965380
 H          3.164265   -6.058306   -0.166198
 H          1.689673   -5.979414    0.802188
 C          4.703075   -1.378550   -0.038166
 C          5.776580   -2.288374   -0.069356
 H          4.841989   -0.303875   -0.019611
 C          7.151299   -1.951385   -0.078545
 S          7.629523   -0.231170   -0.045747
 C          8.320528   -2.714559   -0.109599
 C          9.373553   -0.592844   -0.072316
 C          9.521297   -1.973689   -0.106367
 C          8.658267   -4.148710   -0.146791
 C         10.308538    0.484317   -0.055594
 C         10.654121   -2.928305   -0.142779
 N         10.066969   -4.197865   -0.164878
 O          7.936786   -5.135223   -0.161025
 S         12.073212    0.230486   -0.091964
 C          9.991405    1.843859   -0.011107
 O         11.859132   -2.729451   -0.154102
 C         10.834563   -5.429689   -0.204091
 C         12.341485    1.953528   -0.045437
 C         11.133687    2.656823   -0.007796
 H          8.973337    2.214542    0.019793
 H         10.125488   -6.258066   -0.219594
 H         11.460542   -5.461347   -1.100585
 H         11.476489   -5.508634    0.678137
 C         13.514020    2.751436   -0.015916
 S         11.425950    4.375278    0.035081
 C         13.183417    4.102802    0.027316
 C         14.905521    2.182384    0.007913
 C         14.073618    5.243261    0.058076
 H         15.605113    2.860881    0.503336
 H         14.919309    1.225873    0.541806
 H         15.283247    1.994411   -1.005561
 C         15.317081    5.391014   -0.528770
 S         13.641339    6.715886    0.924396
 C         15.911205    6.661474   -0.291655
 H         15.770003    4.625269   -1.146761
 C         15.124946    7.486277    0.467493
 H         16.879569    6.953952   -0.682637
 H         15.326774    8.499395    0.788615
