       110
S0: Total Energy = -8214.53536997
 C        -13.150598    1.449312    0.043809
 C        -14.002563    2.526347   -0.076417
 S        -14.139027   -0.022888    0.120577
 C        -13.874273    3.994410   -0.185461
 C        -15.389047    2.199501   -0.109761
 C        -15.675504    0.854293   -0.015428
 N        -15.188966    4.474862   -0.281329
 O        -12.884710    4.709695   -0.196083
 C        -16.156731    3.455320   -0.243299
 C        -15.507262    5.886674   -0.406474
 O        -17.360851    3.643714   -0.311417
 H        -16.593549    5.978270   -0.431937
 H        -15.106941    6.442456    0.446004
 H        -15.079527    6.294604   -1.326914
 C        -16.908274    0.108670   -0.007650
 S        -18.499261    0.894664   -0.125443
 C        -17.027508   -1.269483    0.090771
 C        -19.293348   -0.652207   -0.038528
 C        -18.373302   -1.691865    0.072744
 H        -16.177302   -1.937400    0.171740
 C        -20.664334   -1.061586   -0.058743
 S        -19.190562   -3.233922    0.157012
 C        -20.741734   -2.426601    0.039873
 C        -21.838337   -0.130344   -0.171003
 H        -21.643798   -3.025068    0.051359
 H        -22.782142   -0.682376   -0.166672
 H        -21.857996    0.583159    0.662137
 H        -21.791223    0.455098   -1.097609
 C        -11.717284    1.333239    0.111152
 S        -10.643694    2.750032    0.063834
 C        -10.997924    0.151131    0.221147
 C         -9.244598    1.718707    0.193851
 C         -9.608435    0.375604    0.269182
 H        -11.462091   -0.827678    0.262917
 C         -7.845393    1.976340    0.213117
 S         -8.197429   -0.637787    0.400228
 C         -7.135957    0.787759    0.325441
 C         -7.254051    3.352518    0.085066
 H         -6.245456    3.316106   -0.335086
 H         -7.874574    3.976893   -0.567267
 H         -7.193543    3.858802    1.057299
 C         -5.702067    0.603175    0.393270
 C         -4.746350    1.418254    0.970473
 S         -4.936013   -0.815518   -0.314482
 C         -3.426954    0.919867    0.858000
 H         -4.993675    2.330899    1.498876
 C         -3.340094   -0.291909    0.199303
 H         -2.563050    1.431910    1.268558
 C         -2.171406   -1.090975   -0.083145
 C         -2.088029   -2.316668   -0.716096
 S         -0.570484   -0.546842    0.392220
 C         -0.767878   -2.810736   -0.837734
 H         -2.955694   -2.843855   -1.098565
 C          0.192139   -1.978412   -0.293147
 H         -0.523872   -3.734286   -1.348408
 C          1.627727   -2.154917   -0.242627
 C          2.344602   -3.337726   -0.116474
 S          2.680946   -0.726454   -0.364008
 C          3.742634   -3.073505   -0.124953
 C          1.761982   -4.713615    0.049326
 C          4.098679   -1.730573   -0.234318
 S          5.148604   -4.095525    0.003733
 H          0.760358   -4.673155    0.485493
 H          1.687694   -5.239841   -0.911303
 H          2.396199   -5.321832    0.703719
 C          5.487441   -1.498970   -0.214161
 C          6.214657   -2.675318   -0.091980
 H          5.945962   -0.519103   -0.283865
 C          7.649425   -2.781861   -0.049403
 S          8.626023   -1.305697   -0.183053
 C          8.511591   -3.850437    0.080290
 C         10.171168   -2.169747   -0.055561
 C          9.895762   -3.514429    0.077456
 C          8.391912   -5.315986    0.227407
 C         11.397932   -1.419257   -0.105393
 C         10.671668   -4.763429    0.224368
 N          9.714395   -5.786216    0.307426
 O          7.401394   -6.028114    0.274859
 S         12.994425   -2.196081   -0.003748
 C         11.508536   -0.041706   -0.238272
 O         11.876982   -4.952931    0.271250
 C         10.066078   -7.187500    0.458659
 C         13.779314   -0.646267   -0.142461
 C         12.850097    0.385577   -0.260792
 H         10.653468    0.620461   -0.314263
 H          9.138517   -7.760685    0.468193
 H         10.695479   -7.512585   -0.374438
 H         10.609041   -7.346094    1.394891
 C         15.144249   -0.243711   -0.134324
 S         13.654822    1.924729   -0.400423
 C         15.243126    1.134408   -0.270416
 C         16.290227   -1.200691    0.041577
 C         16.440912    1.946289   -0.324867
 H         17.166552   -0.700108    0.461726
 H         16.007080   -2.018382    0.713796
 H         16.589133   -1.653959   -0.912580
 C         17.669434    1.646182   -0.880983
 S         16.475530    3.562603    0.373041
 C         18.618796    2.691450   -0.768423
 H         17.867651    0.716599   -1.400897
 C         18.137563    3.816680   -0.130065
 H         19.622096    2.630083   -1.176521
 C         18.811559    5.067619    0.147282
 C         18.270978    6.283943    0.509875
 S         20.562807    5.189558    0.050018
 C         19.244183    7.305394    0.699951
 H         17.203631    6.444898    0.619588
 C         20.522874    6.869963    0.482662
 H         18.999873    8.324137    0.980151
 H         21.446145    7.429491    0.550066
       110
T1: Total Energy = -8214.48842676
 C         13.087575    1.487026    0.041294
 C         13.969627    2.554961    0.101469
 S         14.049929   -0.005899   -0.074601
 C         13.872809    4.022478    0.204766
 C         15.345605    2.202725    0.057569
 C         15.605726    0.850234   -0.038962
 N         15.200557    4.482538    0.216895
 O         12.898363    4.757141    0.270009
 C         16.144105    3.446182    0.132559
 C         15.549650    5.889168    0.310047
 O         17.354093    3.609894    0.127523
 H         16.636152    5.963328    0.254115
 H         15.095727    6.447357   -0.513461
 H         15.198885    6.309251    1.257311
 C         16.822434    0.086156   -0.110393
 S         18.432342    0.843568   -0.082474
 C         16.912382   -1.295518   -0.208035
 C         19.192472   -0.718368   -0.202508
 C         18.248873   -1.741693   -0.259396
 H         16.047144   -1.948008   -0.240545
 C         20.554601   -1.152795   -0.253199
 S         19.032636   -3.298899   -0.379655
 C         20.602210   -2.519578   -0.349055
 C         21.749575   -0.242823   -0.207506
 H         21.491498   -3.134425   -0.405280
 H         22.681717   -0.811689   -0.262326
 H         21.736228    0.469184   -1.042022
 H         21.763825    0.344476    0.719024
 C         11.664403    1.399061    0.055578
 S         10.615448    2.836564    0.154396
 C         10.911340    0.218997   -0.004683
 C          9.188194    1.821848    0.112671
 C          9.539386    0.461456    0.027729
 H         11.360093   -0.765735   -0.067881
 C          7.817111    2.101174    0.148690
 S          8.113151   -0.541008   -0.010897
 C          7.056633    0.901230    0.089101
 C          7.260483    3.494615    0.238831
 H          6.650845    3.630243    1.139999
 H          8.068905    4.230012    0.275891
 H          6.633919    3.737973   -0.627575
 C          5.658866    0.724262    0.099425
 C          4.620812    1.688895    0.169604
 S          4.944468   -0.900526    0.017096
 C          3.345363    1.161238    0.157722
 H          4.811583    2.750579    0.227242
 C          3.293963   -0.252918    0.077784
 H          2.448556    1.769579    0.205185
 C          2.175434   -1.085168    0.046180
 C          2.124844   -2.500186   -0.033257
 S          0.524462   -0.437868    0.105340
 C          0.851299   -3.028888   -0.046713
 H          3.022382   -3.107575   -0.079881
 C         -0.189524   -2.063937    0.021103
 H          0.661351   -4.090600   -0.106034
 C         -1.584207   -2.241819    0.025283
 C         -2.345237   -3.445412   -0.026661
 S         -2.644404   -0.799571    0.103267
 C         -3.714284   -3.167826   -0.003857
 C         -1.785729   -4.838800   -0.095820
 C         -4.069157   -1.805309    0.064532
 S         -5.140415   -4.185702   -0.045493
 H         -1.180044   -4.988406   -0.997506
 H         -1.154643   -5.065813    0.771616
 H         -2.592710   -5.576402   -0.116664
 C         -5.439429   -1.564771    0.083882
 C         -6.192828   -2.748053    0.029931
 H         -5.890233   -0.580228    0.133414
 C         -7.613249   -2.835354    0.032387
 S         -8.576867   -1.339645    0.118592
 C         -8.497540   -3.904982   -0.021230
 C        -10.133246   -2.196824    0.076736
 C         -9.871848   -3.551722    0.003536
 C         -8.397281   -5.373362   -0.102734
 C        -11.349919   -1.435971    0.120318
 C        -10.668431   -4.797195   -0.061129
 N         -9.728340   -5.833796   -0.121808
 O         -7.416700   -6.101129   -0.147530
 S        -12.957440   -2.199765    0.108086
 C        -11.444992   -0.050203    0.178658
 O        -11.877678   -4.968867   -0.064720
 C        -10.097930   -7.236308   -0.195723
 C        -13.723107   -0.635346    0.180950
 C        -12.780266    0.391457    0.214542
 H        -10.581941    0.605660    0.192153
 H         -9.176186   -7.818622   -0.216812
 H        -10.695390   -7.519019    0.675699
 H        -10.679687   -7.431095   -1.101357
 C        -15.082851   -0.218585    0.186161
 S        -13.565922    1.945185    0.287156
 C        -15.165054    1.166945    0.244743
 C        -16.242858   -1.170759    0.096386
 C        -16.352128    1.994016    0.280772
 H        -17.120447   -0.689505   -0.343490
 H        -15.981053   -2.036756   -0.521684
 H        -16.530845   -1.552469    1.084644
 C        -17.575180    1.735259    0.869829
 S        -16.380157    3.576540   -0.491631
 C        -18.514042    2.785418    0.723464
 H        -17.775434    0.833789    1.436165
 C        -18.030662    3.873913    0.025500
 H        -19.511231    2.755324    1.149656
 C        -18.694880    5.118318   -0.299594
 C        -18.146546    6.309644   -0.727906
 S        -20.442804    5.265921   -0.180266
 C        -19.111091    7.332603   -0.950767
 H        -17.079368    6.452241   -0.861989
 C        -20.390919    6.923415   -0.692789
 H        -18.859947    8.333924   -1.282915
 H        -21.308777    7.490248   -0.772072
       110
S1: Total Energy = -8214.47001821
 C         13.080942    1.485743    0.039907
 C         13.964890    2.552120    0.146689
 S         14.045429   -0.001646   -0.139161
 C         13.866695    4.013155    0.310046
 C         15.338333    2.203223    0.088768
 C         15.601844    0.854197   -0.064600
 N         15.194693    4.474783    0.341303
 O         12.891859    4.744829    0.405086
 C         16.137323    3.443357    0.214074
 C         15.542547    5.876487    0.491486
 O         17.347588    3.606347    0.213998
 H         16.629061    5.953730    0.439232
 H         15.088817    6.467605   -0.308935
 H         15.191125    6.257978    1.454787
 C         16.816951    0.096495   -0.164063
 S         18.428362    0.851606   -0.100022
 C         16.908192   -1.282037   -0.317554
 C         19.188456   -0.704964   -0.280984
 C         18.243848   -1.725084   -0.382498
 H         16.042927   -1.932370   -0.378634
 C         20.549720   -1.137683   -0.344762
 S         19.027909   -3.276843   -0.563123
 C         20.597685   -2.500004   -0.495809
 C         21.745285   -0.231410   -0.258478
 H         21.487220   -3.112107   -0.573855
 H         22.677110   -0.798568   -0.332881
 H         21.735422    0.513467   -1.063830
 H         21.756793    0.318269    0.690889
 C         11.659919    1.396011    0.048903
 S         10.608695    2.826444    0.218373
 C         10.907839    0.220182   -0.070502
 C          9.183459    1.813800    0.127493
 C          9.534276    0.461290   -0.027483
 H         11.356899   -0.760120   -0.181064
 C          7.808362    2.086739    0.189077
 S          8.108099   -0.535707   -0.121101
 C          7.055352    0.896878    0.063876
 C          7.248789    3.466956    0.392433
 H          6.514786    3.487454    1.205564
 H          8.045977    4.171169    0.646852
 H          6.754720    3.844052   -0.511982
 C          5.647227    0.722206    0.071541
 C          4.620284    1.682775    0.011620
 S          4.934054   -0.896222    0.148204
 C          3.335383    1.148849    0.018400
 H          4.810682    2.743714   -0.064006
 C          3.290748   -0.252817    0.081779
 H          2.439262    1.757956   -0.033814
 C          2.165773   -1.103905    0.097615
 C          2.123149   -2.506942    0.143184
 S          0.521740   -0.461516    0.055845
 C          0.841049   -3.043620    0.146590
 H          3.020785   -3.115274    0.175075
 C         -0.190625   -2.083569    0.103835
 H          0.655254   -4.106744    0.189705
 C         -1.595323   -2.258389    0.099835
 C         -2.351455   -3.457156    0.060976
 S         -2.651223   -0.815366    0.143876
 C         -3.723349   -3.180900    0.069414
 C         -1.790907   -4.850858    0.004809
 C         -4.077252   -1.817553    0.108817
 S         -5.149224   -4.198947    0.031516
 H         -1.117821   -4.981210   -0.850418
 H         -1.228110   -5.098859    0.913060
 H         -2.594989   -5.585342   -0.093363
 C         -5.447020   -1.573263    0.109003
 C         -6.203173   -2.757955    0.069277
 H         -5.896996   -0.587603    0.133823
 C         -7.617563   -2.842275    0.060883
 S         -8.582646   -1.341366    0.123395
 C         -8.508396   -3.914995    0.011613
 C        -10.142647   -2.201319    0.076995
 C         -9.875316   -3.562978    0.020337
 C         -8.406666   -5.384327   -0.052973
 C        -11.353687   -1.448733    0.102644
 C        -10.674190   -4.808726   -0.038079
 N         -9.737204   -5.847686   -0.079116
 O         -7.425235   -6.112096   -0.080716
 S        -12.964604   -2.213481    0.081496
 C        -11.452699   -0.055996    0.149303
 O        -11.884030   -4.976174   -0.050701
 C        -10.105839   -7.250657   -0.141183
 C        -13.731036   -0.646295    0.134174
 C        -12.783564    0.382363    0.168595
 H        -10.589533    0.599415    0.165123
 H         -9.183665   -7.832804   -0.142270
 H        -10.715163   -7.523558    0.725215
 H        -10.674528   -7.457715   -1.052523
 C        -15.084729   -0.230640    0.124834
 S        -13.569073    1.937756    0.223852
 C        -15.170223    1.161153    0.173018
 C        -16.244970   -1.182322    0.029987
 C        -16.352037    1.985099    0.186733
 H        -17.083662   -0.735719   -0.511756
 H        -15.948860   -2.096846   -0.494647
 H        -16.609116   -1.479397    1.022121
 C        -17.617315    1.695111    0.673325
 S        -16.325568    3.621418   -0.469899
 C        -18.538279    2.758144    0.540633
 H        -17.860477    0.759335    1.160624
 C        -18.006996    3.892621   -0.044857
 H        -19.562247    2.703945    0.894956
 C        -18.645255    5.158600   -0.322718
 C        -18.070516    6.360305   -0.687283
 S        -20.393150    5.331128   -0.223906
 C        -19.013932    7.407570   -0.878189
 H        -16.999326    6.491000   -0.799571
 C        -20.304953    7.008277   -0.660427
 H        -18.741488    8.418543   -1.160410
 H        -21.211980    7.593541   -0.729699
