       107
S0: Total Energy = -7032.46317279
 S        -16.069027   -1.422520   -0.056231
 C        -17.435894   -0.343688   -0.004534
 C        -17.053314    0.973170    0.052101
 C        -15.639530    1.150017    0.055387
 C        -14.974227   -0.071260   -0.000460
 H        -17.772543    1.785089    0.090036
 S        -12.368612   -1.316155   -0.061112
 C        -11.036799   -0.150276   -0.012657
 C        -11.534412    1.149585    0.044872
 C        -12.940223    1.238756    0.051587
 C        -13.525140   -0.028084   -0.002477
 H        -10.876792    2.013070    0.081218
Si        -14.334577    2.519932    0.112621
 C        -14.371277    3.654782   -1.393639
 H        -15.278445    4.270698   -1.395220
 H        -13.508775    4.331861   -1.393807
 H        -14.350859    3.078512   -2.324560
 C        -14.361156    3.514086    1.715499
 H        -13.497410    4.187190    1.772133
 H        -15.267148    4.128476    1.778288
 H        -14.336481    2.855700    2.590171
 H        -18.437774   -0.752192   -0.019368
 C         -9.654847   -0.541543   -0.031094
 C         -9.021354   -1.766607   -0.084626
 S         -8.401580    0.717154    0.023561
 C         -7.598360   -1.712831   -0.084343
 C         -9.430199   -3.183313   -0.148532
 C         -7.058453   -0.445564   -0.031813
 C         -7.085971   -3.096483   -0.148725
 N         -8.226852   -3.912020   -0.184510
 O        -10.542710   -3.686949   -0.169313
 O         -5.941017   -3.521393   -0.169800
 C         -8.161346   -5.361431   -0.250033
 H         -9.185062   -5.736095   -0.277188
 H         -7.626005   -5.677738   -1.149773
 H         -7.643629   -5.760018    0.627223
 C         -5.707427    0.045123   -0.015695
 S         -4.297240   -1.022850   -0.020385
 C         -5.307896    1.379977    0.008455
 C         -3.235949    0.348295    0.012563
 C         -3.913305    1.571447    0.024039
 H         -6.027291    2.193249    0.012347
 C         -1.792252    0.410695    0.022766
Si         -2.625870    2.960757    0.050681
 S         -0.616728   -0.863619    0.022708
 C         -1.222989    1.688038    0.040339
 C         -2.663474    4.045901   -1.490548
 C         -2.678000    3.998377    1.623972
 C          0.696306    0.321740    0.040855
 C          0.182406    1.617473    0.049612
 H         -3.575179    4.654425   -1.516716
 H         -1.806248    4.729401   -1.506677
 H         -2.632677    3.440810   -2.402638
 H         -1.819282    4.678561    1.670837
 H         -3.588457    4.608292    1.658943
 H         -2.658803    3.365249    2.517161
 C          2.084434   -0.049136    0.040964
 H          0.828707    2.489886    0.064502
 C          2.735257   -1.265537    0.068983
 S          3.318634    1.228184   -0.002352
 C          4.156444   -1.191718    0.061703
 C          2.346193   -2.689757    0.110688
 C          4.677833    0.084486    0.024199
 C          4.688500   -2.569206    0.102131
 N          3.559304   -3.401473    0.129229
 O          1.240413   -3.207095    0.126218
 O          5.839316   -2.977639    0.113232
 C          3.645438   -4.850924    0.170949
 H          2.627168   -5.240644    0.187576
 H          4.172295   -5.226608   -0.710848
 H          4.181742   -5.174546    1.067512
 C          6.021620    0.593974    0.002069
 S          7.446559   -0.453713    0.028815
 C          6.402334    1.933735   -0.044234
 C          8.488123    0.931397   -0.021872
 C          7.794136    2.144488   -0.058557
 H          5.671744    2.736675   -0.067482
 C          9.931468    1.014329   -0.032800
Si          9.062152    3.551038   -0.115350
 S         11.125744   -0.241865    0.004514
 C         10.482387    2.298134   -0.079810
 C          8.993260    4.554064   -1.710069
 C          9.010716    4.666780    1.403265
 C         12.420131    0.960720   -0.045013
 C         11.889851    2.247222   -0.086166
 H          8.074086    5.149940   -1.756691
 H          9.842083    5.245323   -1.772194
 H          9.020736    3.902568   -2.589731
 H          9.858744    5.361800    1.404802
 H          8.090967    5.263512    1.417139
 H          9.049751    4.081085    2.327620
 C         13.814881    0.601568   -0.042577
 H         12.523803    3.128167   -0.119557
 C         14.471676   -0.612811    0.005782
 S         15.044850    1.885083   -0.113595
 C         15.893392   -0.514869   -0.012179
 C         14.117200   -2.045380    0.075106
 C         16.369998    0.755687   -0.074329
 C         16.464850   -1.882949    0.045624
 N         15.349817   -2.733005    0.094995
 O         13.026353   -2.590200    0.110204
 H         17.391398    1.110628   -0.099709
 O         17.623701   -2.255794    0.052154
 C         15.461194   -4.179971    0.160023
 H         14.450407   -4.588723    0.172500
 H         16.004116   -4.558310   -0.710762
 H         15.993885   -4.480848    1.066767
       107
T1: Total Energy = -7032.41929798
 S         16.065947    1.276214    0.114741
 C         17.404461    0.162785    0.152717
 C         16.990342   -1.146571    0.154579
 C         15.574406   -1.289512    0.125268
 C         14.938047   -0.049491    0.101051
 H         17.689929   -1.975960    0.176594
 S         12.368171    1.261101    0.035583
 C         11.006619    0.124119    0.020417
 C         11.478019   -1.193198    0.041722
 C         12.876198   -1.314025    0.070231
 C         13.492503   -0.056525    0.071065
 H         10.799619   -2.040956    0.036372
Si         14.238931   -2.631144    0.109970
 C         14.276039   -3.710008   -1.436274
 H         15.167782   -4.347959   -1.444546
 H         13.397418   -4.364742   -1.476536
 H         14.286876   -3.099794   -2.345436
 C         14.212450   -3.680628    1.676532
 H         13.333714   -4.336259    1.692265
 H         15.103820   -4.316479    1.734506
 H         14.184281   -3.053254    2.573567
 H         18.416021    0.546597    0.171249
 C          9.640502    0.535038   -0.006369
 C          9.027576    1.780629   -0.031258
 S          8.362420   -0.705790   -0.008768
 C          7.617299    1.768025   -0.051222
 C          9.481858    3.190798   -0.044802
 C          7.032876    0.493673   -0.043068
 C          7.142172    3.161868   -0.078486
 N          8.307021    3.952672   -0.073463
 O         10.612989    3.652343   -0.034680
 O          6.010477    3.622599   -0.101812
 C          8.279133    5.404348   -0.095581
 H          9.312231    5.753516   -0.104674
 H          7.758995    5.761273   -0.989000
 H          7.765647    5.790507    0.789732
 C          5.700740    0.052780   -0.053810
 S          4.297099    1.156217   -0.074180
 C          5.263232   -1.305160   -0.046329
 C          3.204150   -0.215757   -0.068592
 C          3.898033   -1.477696   -0.054537
 H          5.978115   -2.122389   -0.034667
 C          1.812355   -0.269131   -0.073511
Si          2.609346   -2.866763   -0.049897
 S          0.616027    1.014740   -0.084395
 C          1.217808   -1.580215   -0.065669
 C          2.655435   -3.940863   -1.597798
 C          2.640668   -3.915337    1.515789
 C         -0.697853   -0.193445   -0.077133
 C         -0.156202   -1.514681   -0.068349
 H          3.563687   -4.554826   -1.618746
 H          1.794125   -4.618882   -1.626357
 H          2.637192   -3.329842   -2.506175
 H          1.779137   -4.592930    1.547405
 H          3.548659   -4.528697    1.555794
 H          2.613653   -3.289280    2.413654
 C         -2.059708    0.140042   -0.076123
 H         -0.805708   -2.384733   -0.062853
 C         -2.746624    1.364410   -0.078413
 S         -3.288789   -1.163648   -0.064683
 C         -4.150631    1.262853   -0.070267
 C         -2.382687    2.792955   -0.089622
 C         -4.662660   -0.028895   -0.063828
 C         -4.715973    2.633685   -0.074222
 N         -3.610432    3.488053   -0.086163
 O         -1.287845    3.334216   -0.100547
 O         -5.878324    3.008570   -0.068198
 C         -3.721186    4.936086   -0.093456
 H         -2.709203    5.342279   -0.100825
 H         -4.262194    5.273253   -0.982306
 H         -4.253198    5.282774    0.797163
 C         -5.991520   -0.543875   -0.057145
 S         -7.436067    0.483701   -0.024997
 C         -6.357487   -1.896595   -0.071250
 C         -8.455910   -0.920121   -0.028862
 C         -7.739772   -2.126704   -0.056402
 H         -5.614037   -2.687439   -0.093462
 C         -9.891778   -1.028136   -0.010979
Si         -8.984625   -3.555757   -0.065708
 S        -11.108800    0.208211    0.030778
 C        -10.423303   -2.324476   -0.024972
 C         -8.926528   -4.583629   -1.644651
 C         -8.886180   -4.643426    1.470524
 C        -12.381937   -1.018425    0.028061
 C        -11.828915   -2.297552   -0.003062
 H         -7.997224   -5.162938   -1.698479
 H         -9.763116   -5.291521   -1.679486
 H         -8.982376   -3.947648   -2.534247
 H         -9.720082   -5.354823    1.497950
 H         -7.954504   -5.221465    1.479019
 H         -8.921680   -4.042692    2.385295
 C        -13.781442   -0.685801    0.053600
 H        -12.448344   -3.189326   -0.008143
 C        -14.460568    0.517120    0.102236
 S        -14.988519   -1.993150    0.019940
 C        -15.879845    0.391893    0.113510
 C        -14.132279    1.956459    0.150899
 C        -16.333410   -0.888188    0.074137
 C        -16.476431    1.749445    0.169469
 N        -15.377348    2.620901    0.188732
 O        -13.051516    2.522208    0.159259
 H        -17.348266   -1.262290    0.072844
 O        -17.642019    2.099825    0.195386
 C        -15.514985    4.066067    0.242632
 H        -14.512006    4.493684    0.234211
 H        -16.079452    4.426273   -0.622122
 H        -16.037878    4.365182    1.155621
       107
S1: Total Energy = -7032.39970906
 S         16.051954    1.345507    0.147671
 C         17.400930    0.247026    0.205678
 C         17.002067   -1.068487    0.216358
 C         15.590216   -1.228483    0.177836
 C         14.938460    0.006371    0.137460
 H         17.711725   -1.888725    0.251166
 S         12.358014    1.286994    0.042369
 C         11.010135    0.132577    0.027921
 C         11.498329   -1.181618    0.063999
 C         12.894651   -1.284744    0.103106
 C         13.497802   -0.016994    0.097011
 H         10.829627   -2.036994    0.061775
Si         14.271767   -2.587733    0.165444
 C         14.332077   -3.678643   -1.370746
 H         15.230971   -4.306460   -1.366567
 H         13.461208   -4.343626   -1.410950
 H         14.342575   -3.076553   -2.285270
 C         14.244666   -3.619452    1.742939
 H         13.372930   -4.284296    1.758954
 H         15.142321   -4.244952    1.814139
 H         14.203016   -2.982816    2.632851
 H         18.408273    0.641697    0.228324
 C          9.642524    0.527101   -0.011039
 C          9.015764    1.767175   -0.046291
 S          8.374169   -0.723796   -0.016081
 C          7.606378    1.736461   -0.074721
 C          9.452256    3.182872   -0.064024
 C          7.038480    0.461091   -0.064521
 C          7.113930    3.125970   -0.111256
 N          8.267944    3.930563   -0.103223
 O         10.577330    3.658046   -0.049555
 O          5.976217    3.569779   -0.142939
 C          8.222949    5.382007   -0.132374
 H          9.251791    5.743491   -0.134884
 H          7.705761    5.728324   -1.031620
 H          7.697797    5.765608    0.747120
 C          5.701532    0.002130   -0.081401
 S          4.295058    1.090388   -0.104220
 C          5.277912   -1.345461   -0.076942
 C          3.216349   -0.278415   -0.102264
 C          3.900696   -1.524313   -0.088846
 H          5.993467   -2.162031   -0.064837
 C          1.802622   -0.331399   -0.108926
Si          2.609349   -2.911078   -0.089229
 S          0.620309    0.950863   -0.115419
 C          1.216744   -1.625389   -0.103775
 C          2.657012   -3.979915   -1.640677
 C          2.637609   -3.962099    1.474812
 C         -0.698076   -0.243782   -0.109596
 C         -0.169834   -1.556563   -0.105003
 H          3.564046   -4.595574   -1.661900
 H          1.794352   -4.655966   -1.673158
 H          2.641568   -3.365668   -2.546925
 H          1.774880   -4.638201    1.504110
 H          3.544500   -4.576991    1.514925
 H          2.610263   -3.337390    2.373600
 C         -2.065425    0.104175   -0.104969
 H         -0.819960   -2.425857   -0.100293
 C         -2.738772    1.330169   -0.098438
 S         -3.301342   -1.190054   -0.099048
 C         -4.140826    1.250304   -0.087387
 C         -2.351640    2.757268   -0.100821
 C         -4.671813   -0.042860   -0.086634
 C         -4.684364    2.625722   -0.082514
 N         -3.563419    3.468779   -0.090915
 O         -1.245093    3.274283   -0.109778
 O         -5.838762    3.023633   -0.073188
 C         -3.655749    4.917900   -0.089389
 H         -2.638860    5.311821   -0.094268
 H         -4.192448    5.267621   -0.976048
 H         -4.183487    5.265989    0.803240
 C         -5.994224   -0.540930   -0.076765
 S         -7.436080    0.500455   -0.032614
 C         -6.376626   -1.899179   -0.095030
 C         -8.468815   -0.899810   -0.036816
 C         -7.751526   -2.117814   -0.074202
 H         -5.637813   -2.694239   -0.124591
 C         -9.890718   -1.001093   -0.010232
Si         -9.002878   -3.541433   -0.082564
 S        -11.109482    0.240505    0.044885
 C        -10.433660   -2.303507   -0.026357
 C         -8.958629   -4.563106   -1.666444
 C         -8.897605   -4.639042    1.446614
 C        -12.387541   -0.987170    0.045842
 C        -11.831471   -2.272496    0.004889
 H         -8.033274   -5.148056   -1.727770
 H         -9.799992   -5.265425   -1.700268
 H         -9.015157   -3.922652   -2.552772
 H         -9.734779   -5.346551    1.476373
 H         -7.968628   -5.221583    1.444812
 H         -8.923439   -4.043356    2.365002
 C        -13.778174   -0.657110    0.083424
 H        -12.454357   -3.161941   -0.000145
 C        -14.462879    0.549384    0.136222
 S        -14.988302   -1.968753    0.063654
 C        -15.880877    0.418111    0.159896
 C        -14.140174    1.985124    0.179200
 C        -16.333564   -0.862799    0.127000
 C        -16.484167    1.773140    0.217996
 N        -15.390730    2.647569    0.226002
 O        -13.063132    2.561315    0.178286
 H        -17.348435   -1.236814    0.135245
 O        -17.652824    2.116560    0.253053
 C        -15.531618    4.091715    0.278116
 H        -14.529404    4.521119    0.262839
 H        -16.101968    4.450327   -0.583693
 H        -16.049561    4.392347    1.193646
